<?xml version="1.0"?>
<VTKFile type="UnstructuredGrid" version="2.2">
  <UnstructuredGrid>
    <Piece NumberOfPoints="326" NumberOfCells="286">
      <Points>
        <DataArray type="Float64" NumberOfComponents="3" format="ascii">-5.551115123125782e-19 -1.110223024625157e-18 0 -5.551115123125782e-19 0.01999999999999999 0 0.02 -1.110223024625157e-18 0 0.02 0.01999999999999999 0 -5.551115123125782e-19 0.03999999999999999 0 0.02 0.03999999999999999 0 0.03999999999999999 -1.110223024625157e-18 0 0.03999999999999999 0.01999999999999999 0 -5.551115123125782e-19 0.05999999999999998 0 0.02 0.05999999999999998 0 0.03999999999999999 0.03999999999999999 0 0.05999999999999998 -1.110223024625157e-18 0 0.05999999999999998 0.01999999999999999 0 -5.551115123125782e-19 0.07999999999999997 0 0.02 0.07999999999999997 0 0.03999999999999999 0.05999999999999998 0 0.05999999999999998 0.03999999999999999 0 0.07999999999999999 -1.110223024625157e-18 0 0.07999999999999999 0.01999999999999999 0 -5.551115123125782e-19 0.09999999999999996 0 0.02 0.09999999999999996 0 0.03999999999999999 0.07999999999999997 0 0.05999999999999998 0.05999999999999998 0 0.07999999999999999 0.03999999999999999 0 0.09999999999999996 -1.110223024625157e-18 0 0.09999999999999996 0.01999999999999999 0 -5.551115123125782e-19 0.12 0 0.02 0.12 0 0.03999999999999999 0.09999999999999996 0 0.05999999999999998 0.07999999999999997 0 0.07999999999999999 0.05999999999999998 0 0.09999999999999996 0.03999999999999999 0 0.12 -1.110223024625157e-18 0 0.12 0.01999999999999999 0 -5.551115123125782e-19 0.14 0 0.02 0.14 0 0.03999999999999999 0.12 0 0.05999999999999998 0.09999999999999996 0 0.07999999999999999 0.07999999999999997 0 0.09999999999999996 0.05999999999999998 0 0.12 0.03999999999999999 0 0.14 -1.110223024625157e-18 0 0.14 0.01999999999999999 0 -5.551115123125782e-19 0.16 0 0.02 0.16 0 0.03999999999999999 0.14 0 0.05999999999999998 0.12 0 0.07999999999999999 0.09999999999999996 0 0.09999999999999996 0.07999999999999997 0 0.12 0.05999999999999998 0 0.14 0.03999999999999999 0 0.16 -1.110223024625157e-18 0 0.16 0.01999999999999999 0 -5.551115123125782e-19 0.1799999999999999 0 0.02 0.1799999999999999 0 0.03999999999999999 0.16 0 0.05999999999999998 0.14 0 0.07999999999999999 0.12 0 0.09999999999999996 0.09999999999999996 0 0.12 0.07999999999999997 0 0.14 0.05999999999999998 0 0.16 0.03999999999999999 0 0.18 -1.110223024625157e-18 0 0.18 0.01999999999999999 0 -5.551115123125782e-19 0.1999999999999999 0 0.02 0.1999999999999999 0 0.03999999999999999 0.1799999999999999 0 0.05999999999999998 0.16 0 0.07999999999999999 0.14 0 0.09999999999999996 0.12 0 0.12 0.09999999999999996 0 0.14 0.07999999999999997 0 0.16 0.05999999999999998 0 0.18 0.03999999999999999 0 0.1999999999999999 -1.110223024625157e-18 0 0.1999999999999999 0.01999999999999999 0 -5.551115123125782e-19 0.2199999999999999 0 0.02 0.2199999999999999 0 0.03999999999999999 0.1999999999999999 0 0.05999999999999998 0.1799999999999999 0 0.07999999999999999 0.16 0 0.09999999999999996 0.14 0 0.12 0.12 0 0.14 0.09999999999999996 0 0.16 0.07999999999999997 0 0.18 0.05999999999999998 0 0.1999999999999999 0.03999999999999999 0 0.2199999999999999 -1.110223024625157e-18 0 0.2199999999999999 0.01999999999999999 0 -5.551115123125782e-19 0.2399999999999999 0 0.02 0.2399999999999999 0 0.03999999999999999 0.2199999999999999 0 0.05999999999999998 0.1999999999999999 0 0.07999999999999999 0.1799999999999999 0 0.09999999999999996 0.16 0 0.12 0.14 0 0.14 0.12 0 0.16 0.09999999999999996 0 0.18 0.07999999999999997 0 0.1999999999999999 0.05999999999999998 0 0.2199999999999999 0.03999999999999999 0 0.2399999999999999 -1.110223024625157e-18 0 0.2399999999999999 0.01999999999999999 0 -5.551115123125782e-19 0.26 0 0.02 0.26 0 0.03999999999999999 0.2399999999999999 0 0.05999999999999998 0.2199999999999999 0 0.07999999999999999 0.1999999999999999 0 0.09999999999999996 0.1799999999999999 0 0.12 0.16 0 0.14 0.14 0 0.16 0.12 0 0.18 0.09999999999999996 0 0.1999999999999999 0.07999999999999997 0 0.2199999999999999 0.05999999999999998 0 0.2399999999999999 0.03999999999999999 0 0.26 -1.110223024625157e-18 0 0.26 0.01999999999999999 0 -5.551115123125782e-19 0.28 0 0.02 0.28 0 0.03999999999999999 0.26 0 0.05999999999999998 0.2399999999999999 0 0.07999999999999999 0.2199999999999999 0 0.09999999999999996 0.1999999999999999 0 0.12 0.1799999999999999 0 0.14 0.16 0 0.16 0.14 0 0.18 0.12 0 0.1999999999999999 0.09999999999999996 0 0.2199999999999999 0.07999999999999997 0 0.2399999999999999 0.05999999999999998 0 0.26 0.03999999999999999 0 0.28 0.01999999999999999 0 -5.551115123125782e-19 0.2999999999999999 0 0.02 0.2999999999999999 0 0.03999999999999999 0.28 0 0.05999999999999998 0.26 0 0.07999999999999999 0.2399999999999999 0 0.09999999999999996 0.2199999999999999 0 0.12 0.1999999999999999 0 0.14 0.1799999999999999 0 0.16 0.16 0 0.18 0.14 0 0.1999999999999999 0.12 0 0.2199999999999999 0.09999999999999996 0 0.2399999999999999 0.07999999999999997 0 0.26 0.05999999999999998 0 -5.551115123125782e-19 0.32 0 0.02 0.32 0 0.03999999999999999 0.2999999999999999 0 0.05999999999999998 0.28 0 0.07999999999999999 0.26 0 0.09999999999999996 0.2399999999999999 0 0.12 0.2199999999999999 0 0.14 0.1999999999999999 0 0.16 0.1799999999999999 0 0.18 0.16 0 0.1999999999999999 0.14 0 0.2199999999999999 0.12 0 0.2399999999999999 0.09999999999999996 0 0.26 0.07999999999999997 0 -5.551115123125782e-19 0.34 0 0.02 0.34 0 0.03999999999999999 0.32 0 0.05999999999999998 0.2999999999999999 0 0.07999999999999999 0.28 0 0.09999999999999996 0.26 0 0.12 0.2399999999999999 0 0.14 0.2199999999999999 0 0.16 0.1999999999999999 0 0.18 0.1799999999999999 0 0.1999999999999999 0.16 0 0.2199999999999999 0.14 0 0.2399999999999999 0.12 0 0.2600000000000001 0.1 0 -5.551115123125782e-19 0.3599999999999999 0 0.02 0.3599999999999999 0 0.03999999999999999 0.34 0 0.05999999999999998 0.32 0 0.07999999999999999 0.2999999999999999 0 0.09999999999999996 0.28 0 0.12 0.26 0 0.14 0.2399999999999999 0 0.16 0.2199999999999999 0 0.18 0.1999999999999999 0 0.1999999999999999 0.1799999999999999 0 0.2199999999999999 0.16 0 0.2399999999999999 0.14 0 0.26 0.12 0 0.02 0.3799999999999998 0 0.03999999999999999 0.3599999999999999 0 0.05999999999999998 0.34 0 0.07999999999999999 0.32 0 0.09999999999999996 0.2999999999999999 0 0.12 0.28 0 0.14 0.26 0 0.16 0.2399999999999999 0 0.18 0.2199999999999999 0 0.1999999999999999 0.1999999999999999 0 0.2199999999999999 0.1799999999999999 0 0.2399999999999999 0.16 0 0.26 0.14 0 0.2800000000000001 0.1 0 0.28 0.12 0 0.05999999999999998 0.3599999999999999 0 0.07999999999999999 0.34 0 0.09999999999999996 0.32 0 0.12 0.2999999999999999 0 0.14 0.28 0 0.16 0.26 0 0.18 0.2399999999999999 0 0.1999999999999999 0.2199999999999999 0 0.2199999999999999 0.1999999999999999 0 0.2399999999999999 0.1799999999999999 0 0.26 0.16 0 0.28 0.14 0 0.08 0.36 0 0.09999999999999996 0.34 0 0.12 0.32 0 0.14 0.2999999999999999 0 0.16 0.28 0 0.18 0.26 0 0.1999999999999999 0.2399999999999999 0 0.2199999999999999 0.2199999999999999 0 0.2399999999999999 0.1999999999999999 0 0.26 0.1799999999999999 0 0.28 0.16 0 0.2999999999999999 0.14 0 0.12 0.34 0 0.14 0.32 0 0.16 0.2999999999999999 0 0.18 0.28 0 0.1999999999999999 0.26 0 0.2199999999999999 0.2399999999999999 0 0.2399999999999999 0.2199999999999999 0 0.26 0.1999999999999999 0 0.28 0.1799999999999999 0 0.14 0.34 0 0.16 0.32 0 0.18 0.2999999999999999 0 0.1999999999999999 0.28 0 0.2199999999999999 0.26 0 0.2399999999999999 0.2399999999999999 0 0.26 0.2199999999999999 0 0.28 0.1999999999999999 0 0.16 0.34 0 0.18 0.32 0 0.1999999999999999 0.2999999999999999 0 0.2199999999999999 0.28 0 0.2399999999999999 0.26 0 0.26 0.2399999999999999 0 0.28 0.2199999999999999 0 0.2999999999999999 0.1999999999999999 0 0.1999999999999999 0.32 0 0.2399999999999999 0.28 0 0.26 0.26 0 0.28 0.2399999999999999 0 0.2999999999999999 0.2199999999999999 0 0.32 0.1799999999999999 0 0.2399999999999999 0.2999999999999999 0 0.26 0.28 0 0.28 0.26 0 0.2999999999999999 0.2399999999999999 0 0.28 0.28 0 0.2999999999999999 0.26 0 0.3200000000000001 0.24 0 0.28 0.2999999999999999 0 0.2999999999999999 0.28 0 0.32 0.26 0 0.32 0.28 0 0.34 0.28 0 0.3400000000000001 0.3 0 0.28 -1.110223024625157e-18 0 0.2800000000000001 0.04 0 -5.551115123125782e-19 0.3799999999999998 0 0.04 0.3800000000000001 0 0.2999999999999999 0.09999999999999996 0 0.2999999999999999 0.12 0 0.2999999999999999 0.16 0 0.3 0.18 0 0.18 0.34 0 0.2199999999999999 0.2999999999999999 0 0.32 0.1999999999999999 0 0.2 0.3400000000000001 0 0.32 0.2199999999999999 0 0.26 0.2999999999999999 0 0.2999999999999999 0.2999999999999999 0 0.34 0.2399999999999999 0 0.34 0.26 0 0.32 0.2999999999999999 0 -1.665334536937735e-18 0.4 0 0.02 0.4 0 0.04 0.4 0 0.06 0.3800000000000001 0 0.08 0.38 0 0.1 0.36 0 0.12 0.36 0 0.14 0.36 0 0.16 0.36 0 0.18 0.36 0 0.2 0.36 0 0.22 0.3200000000000001 0 0.22 0.34 0 0.24 0.3200000000000001 0 0.2600000000000001 0.3200000000000001 0 0.2800000000000001 0.06 0 0.28 0.07999999999999997 0 0.2800000000000001 0.3200000000000001 0 0.3 -2.220446049250313e-18 0 0.3 0.02 0 0.3 0.04 0 0.3 0.08 0 0.3 0.3200000000000001 0 0.32 0.1 0 0.32 0.12 0 0.32 0.14 0 0.32 0.16 0 0.3200000000000001 0.3200000000000001 0 0.34 0.18 0 0.34 0.2 0 0.34 0.22 0 0.34 0.32 0 0.36 0.24 0 0.36 0.2600000000000001 0 0.36 0.28 0 0.36 0.3 0 </DataArray>
      </Points>
      <Cells>
        <DataArray type="Int32" Name="connectivity" format="ascii">0 1 3 2 1 4 5 3 2 3 7 6 4 8 9 5 3 5 10 7 6 7 12 11 8 13 14 9 5 9 15 10 7 10 16 12 11 12 18 17 13 19 20 14 9 14 21 15 10 15 22 16 12 16 23 18 17 18 25 24 19 26 27 20 14 20 28 21 15 21 29 22 16 22 30 23 18 23 31 25 24 25 33 32 26 34 35 27 20 27 36 28 21 28 37 29 22 29 38 30 23 30 39 31 25 31 40 33 32 33 42 41 34 43 44 35 27 35 45 36 28 36 46 37 29 37 47 38 30 38 48 39 31 39 49 40 33 40 50 42 41 42 52 51 43 53 54 44 35 44 55 45 36 45 56 46 37 46 57 47 38 47 58 48 39 48 59 49 40 49 60 50 42 50 61 52 51 52 63 62 53 64 65 54 44 54 66 55 45 55 67 56 46 56 68 57 47 57 69 58 48 58 70 59 49 59 71 60 50 60 72 61 52 61 73 63 62 63 75 74 64 76 77 65 54 65 78 66 55 66 79 67 56 67 80 68 57 68 81 69 58 69 82 70 59 70 83 71 60 71 84 72 61 72 85 73 63 73 86 75 74 75 88 87 76 89 90 77 65 77 91 78 66 78 92 79 67 79 93 80 68 80 94 81 69 81 95 82 70 82 96 83 71 83 97 84 72 84 98 85 73 85 99 86 75 86 100 88 87 88 102 101 89 103 104 90 77 90 105 91 78 91 106 92 79 92 107 93 80 93 108 94 81 94 109 95 82 95 110 96 83 96 111 97 84 97 112 98 85 98 113 99 86 99 114 100 88 100 115 102 101 102 117 116 103 118 119 104 90 104 120 105 91 105 121 106 92 106 122 107 93 107 123 108 94 108 124 109 95 109 125 110 96 110 126 111 97 111 127 112 98 112 128 113 99 113 129 114 100 114 130 115 102 115 131 117 116 117 132 272 118 133 134 119 104 119 135 120 105 120 136 121 106 121 137 122 107 122 138 123 108 123 139 124 109 124 140 125 110 125 141 126 111 126 142 127 112 127 143 128 113 128 144 129 114 129 145 130 115 130 146 131 117 131 273 132 133 147 148 134 119 134 149 135 120 135 150 136 121 136 151 137 122 137 152 138 123 138 153 139 124 139 154 140 125 140 155 141 126 141 156 142 127 142 157 143 128 143 158 144 129 144 159 145 130 145 160 146 147 161 162 148 134 148 163 149 135 149 164 150 136 150 165 151 137 151 166 152 138 152 167 153 139 153 168 154 140 154 169 155 141 155 170 156 142 156 171 157 143 157 172 158 144 158 173 159 145 159 174 160 161 175 176 162 148 162 177 163 149 163 178 164 150 164 179 165 151 165 180 166 152 166 181 167 153 167 182 168 154 168 183 169 155 169 184 170 156 170 185 171 157 171 186 172 158 172 187 173 159 173 188 174 175 274 189 176 162 176 190 177 163 177 191 178 164 178 192 179 165 179 193 180 166 180 194 181 167 181 195 182 168 182 196 183 169 183 197 184 170 184 198 185 171 185 199 186 172 186 200 187 173 187 201 188 174 188 203 202 176 189 275 190 177 190 204 191 178 191 205 192 179 192 206 193 180 193 207 194 181 194 208 195 182 195 209 196 183 196 210 197 184 197 211 198 185 198 212 199 186 199 213 200 187 200 214 201 188 201 215 203 202 203 277 276 191 204 216 205 192 205 217 206 193 206 218 207 194 207 219 208 195 208 220 209 196 209 221 210 197 210 222 211 198 211 223 212 199 212 224 213 200 213 225 214 201 214 226 215 203 215 227 277 206 217 228 218 207 218 229 219 208 219 230 220 209 220 231 221 210 221 232 222 211 222 233 223 212 223 234 224 213 224 235 225 214 225 236 226 215 226 278 227 218 228 237 229 219 229 238 230 220 230 239 231 221 231 240 232 222 232 241 233 223 233 242 234 224 234 243 235 225 235 244 236 226 236 279 278 229 237 245 238 230 238 246 239 231 239 247 240 232 240 248 241 233 241 249 242 234 242 250 243 235 243 251 244 236 244 252 279 238 245 280 246 239 246 253 247 240 247 281 248 241 248 254 249 242 249 255 250 243 250 256 251 244 251 257 252 279 252 282 258 246 280 283 253 248 281 259 254 249 254 260 255 250 255 261 256 251 256 262 257 252 257 284 282 254 259 285 260 255 260 263 261 256 261 264 262 257 262 265 284 260 285 266 263 261 263 267 264 262 264 268 265 263 266 286 267 264 267 269 268 265 268 288 287 267 286 289 269 268 269 270 288 269 289 271 270 274 290 291 189 189 291 292 275 190 275 293 204 204 293 294 216 205 216 295 217 217 295 296 228 228 296 297 237 237 297 298 245 245 298 299 280 280 299 300 283 247 253 301 281 253 283 302 301 281 301 303 259 259 303 304 285 131 146 305 273 146 160 306 305 160 174 202 306 285 304 307 266 272 132 309 308 132 273 310 309 306 202 276 311 266 307 312 286 276 277 314 313 277 227 315 314 227 278 316 315 278 279 258 316 286 312 317 289 258 282 319 318 282 284 320 319 284 265 287 320 289 317 321 271 287 288 323 322 288 270 324 323 270 271 325 324 </DataArray>
        <DataArray type="Int32" Name="offsets" format="ascii">4 8 12 16 20 24 28 32 36 40 44 48 52 56 60 64 68 72 76 80 84 88 92 96 100 104 108 112 116 120 124 128 132 136 140 144 148 152 156 160 164 168 172 176 180 184 188 192 196 200 204 208 212 216 220 224 228 232 236 240 244 248 252 256 260 264 268 272 276 280 284 288 292 296 300 304 308 312 316 320 324 328 332 336 340 344 348 352 356 360 364 368 372 376 380 384 388 392 396 400 404 408 412 416 420 424 428 432 436 440 444 448 452 456 460 464 468 472 476 480 484 488 492 496 500 504 508 512 516 520 524 528 532 536 540 544 548 552 556 560 564 568 572 576 580 584 588 592 596 600 604 608 612 616 620 624 628 632 636 640 644 648 652 656 660 664 668 672 676 680 684 688 692 696 700 704 708 712 716 720 724 728 732 736 740 744 748 752 756 760 764 768 772 776 780 784 788 792 796 800 804 808 812 816 820 824 828 832 836 840 844 848 852 856 860 864 868 872 876 880 884 888 892 896 900 904 908 912 916 920 924 928 932 936 940 944 948 952 956 960 964 968 972 976 980 984 988 992 996 1000 1004 1008 1012 1016 1020 1024 1028 1032 1036 1040 1044 1048 1052 1056 1060 1064 1068 1072 1076 1080 1084 1088 1092 1096 1100 1104 1108 1112 1116 1120 1124 1128 1132 1136 1140 1144 </DataArray>
        <DataArray type="Int8" Name="types" format="ascii">70 70 70 70 70 70 70 70 70 70 70 70 70 70 70 70 70 70 70 70 70 70 70 70 70 70 70 70 70 70 70 70 70 70 70 70 70 70 70 70 70 70 70 70 70 70 70 70 70 70 70 70 70 70 70 70 70 70 70 70 70 70 70 70 70 70 70 70 70 70 70 70 70 70 70 70 70 70 70 70 70 70 70 70 70 70 70 70 70 70 70 70 70 70 70 70 70 70 70 70 70 70 70 70 70 70 70 70 70 70 70 70 70 70 70 70 70 70 70 70 70 70 70 70 70 70 70 70 70 70 70 70 70 70 70 70 70 70 70 70 70 70 70 70 70 70 70 70 70 70 70 70 70 70 70 70 70 70 70 70 70 70 70 70 70 70 70 70 70 70 70 70 70 70 70 70 70 70 70 70 70 70 70 70 70 70 70 70 70 70 70 70 70 70 70 70 70 70 70 70 70 70 70 70 70 70 70 70 70 70 70 70 70 70 70 70 70 70 70 70 70 70 70 70 70 70 70 70 70 70 70 70 70 70 70 70 70 70 70 70 70 70 70 70 70 70 70 70 70 70 70 70 70 70 70 70 70 70 70 70 70 70 70 70 70 70 70 70 70 70 70 70 70 70 70 70 70 70 70 70 70 70 70 70 70 70 </DataArray>
      </Cells>
      <CellData>
        <DataArray type="UInt8" Name="vtkGhostType" format="ascii" RangeMin="0" RangeMax="1">0 0 0 0 0 0 0 0 0 0 0 0 0 0 0 0 0 0 0 0 0 0 0 0 0 0 0 0 0 0 0 0 0 0 0 0 0 0 0 0 0 0 0 0 0 0 0 0 0 0 0 0 0 0 0 0 0 0 0 0 0 0 0 0 0 0 0 0 0 0 0 0 0 0 0 0 0 0 0 0 0 0 0 0 0 0 0 0 0 0 0 0 0 0 0 0 0 0 0 0 0 0 0 0 0 0 0 0 0 0 0 0 0 0 0 0 0 0 0 0 0 0 0 0 0 0 0 0 0 0 0 0 0 0 0 0 0 0 0 0 0 0 0 0 0 0 0 0 0 0 0 0 0 0 0 0 0 0 0 0 0 0 0 0 0 0 0 0 0 0 0 0 0 0 0 0 0 0 0 0 0 0 0 0 0 0 0 0 0 0 0 0 0 0 0 0 0 0 0 0 0 0 0 0 0 0 0 0 0 0 0 0 0 0 0 0 0 0 0 0 0 0 0 0 0 0 0 0 0 0 0 0 0 0 0 0 0 0 0 0 0 0 0 0 0 0 0 0 0 0 0 0 1 1 1 1 1 1 1 1 1 1 1 1 1 1 1 1 1 1 1 1 1 1 1 1 1 1 1 1 1 1 1 1 1 1 </DataArray>
        <DataArray type="Int64" IdType="1" Name="vtkOriginalCellIds" format="ascii" RangeMin="599" RangeMax="1249">998 999 1000 1001 1002 1003 1004 1005 1006 1007 1008 1009 1010 1011 1012 1013 1014 1015 1016 1017 1018 1019 1020 1021 1022 1023 1024 1025 1026 1027 1028 1029 1030 1031 1032 1033 1034 1035 1036 1037 1038 1039 1040 1041 1042 1043 1044 1045 1046 1047 1048 1049 1050 1051 1052 1053 1054 1055 1056 1057 1058 1059 1060 1061 1062 1063 1064 1065 1066 1067 1068 1069 1070 1071 1072 1073 1074 1075 1076 1077 1078 1079 1080 1081 1082 1083 1084 1085 1086 1087 1088 1089 1090 1091 1092 1093 1094 1095 1096 1097 1098 1099 1100 1101 1102 1103 1104 1105 1106 1107 1108 1109 1110 1111 1112 1113 1114 1115 1116 1117 1118 1119 1120 1121 1122 1123 1124 1125 1126 1127 1128 1129 1130 1131 1132 1133 1134 1135 1136 1137 1138 1139 1140 1141 1142 1143 1144 1145 1146 1147 1148 1149 1150 1151 1152 1153 1154 1155 1156 1157 1158 1159 1160 1161 1162 1163 1164 1165 1166 1167 1168 1169 1170 1171 1172 1173 1174 1175 1176 1177 1178 1179 1180 1181 1182 1183 1184 1185 1186 1187 1188 1189 1190 1191 1192 1193 1194 1195 1196 1197 1198 1199 1200 1201 1202 1203 1204 1205 1206 1207 1208 1209 1210 1211 1212 1213 1214 1215 1216 1217 1218 1219 1220 1221 1222 1223 1224 1225 1226 1227 1228 1229 1230 1231 1232 1233 1234 1235 1236 1237 1238 1239 1240 1241 1242 1243 1244 1245 1246 1247 1248 1249 753 755 762 768 782 790 798 806 814 822 847 838 857 867 749 745 740 877 752 750 735 887 724 717 709 700 897 681 669 655 907 627 613 599 </DataArray>
      </CellData>
      <PointData Scalars="phi">
        <DataArray type="Int64" IdType="1" Name="vtkOriginalPointIds" format="ascii" RangeMin="618" RangeMax="1325">1054 1055 1056 1057 1058 1059 1060 1061 1062 1063 1064 1065 1066 1067 1068 1069 1070 1071 1072 1073 1074 1075 1076 1077 1078 1079 1080 1081 1082 1083 1084 1085 1086 1087 1088 1089 1090 1091 1092 1093 1094 1095 1096 1097 1098 1099 1100 1101 1102 1103 1104 1105 1106 1107 1108 1109 1110 1111 1112 1113 1114 1115 1116 1117 1118 1119 1120 1121 1122 1123 1124 1125 1126 1127 1128 1129 1130 1131 1132 1133 1134 1135 1136 1137 1138 1139 1140 1141 1142 1143 1144 1145 1146 1147 1148 1149 1150 1151 1152 1153 1154 1155 1156 1157 1158 1159 1160 1161 1162 1163 1164 1165 1166 1167 1168 1169 1170 1171 1172 1173 1174 1175 1176 1177 1178 1179 1180 1181 1182 1183 1184 1185 1186 1187 1188 1189 1190 1191 1192 1193 1194 1195 1196 1197 1198 1199 1200 1201 1202 1203 1204 1205 1206 1207 1208 1209 1210 1211 1212 1213 1214 1215 1216 1217 1218 1219 1220 1221 1222 1223 1224 1225 1226 1227 1228 1229 1230 1231 1232 1233 1234 1235 1236 1237 1238 1239 1240 1241 1242 1243 1244 1245 1246 1247 1248 1249 1250 1251 1252 1253 1254 1255 1256 1257 1258 1259 1260 1261 1262 1263 1264 1265 1266 1267 1268 1269 1270 1271 1272 1273 1274 1275 1276 1277 1278 1279 1280 1281 1282 1283 1284 1285 1286 1287 1288 1289 1290 1291 1292 1293 1294 1295 1296 1297 1298 1299 1300 1301 1302 1303 1304 1305 1306 1307 1308 1309 1310 1311 1312 1313 1314 1315 1316 1317 1318 1319 1320 1321 1322 1323 1324 1325 794 790 795 800 770 763 746 747 866 903 717 875 704 924 945 674 659 956 796 797 801 805 811 826 834 842 850 858 867 893 884 904 914 786 781 925 793 791 787 776 935 764 756 748 737 946 718 705 689 631 660 645 632 618 </DataArray>
        <DataArray type="UInt8" Name="vtkGhostType" format="ascii" RangeMin="0" RangeMax="1">0 0 0 0 0 0 0 0 0 0 0 0 0 0 0 0 0 0 0 0 0 0 0 0 0 0 0 0 0 0 0 0 0 0 0 0 0 0 0 0 0 0 0 0 0 0 0 0 0 0 0 0 0 0 0 0 0 0 0 0 0 0 0 0 0 0 0 0 0 0 0 0 0 0 0 0 0 0 0 0 0 0 0 0 0 0 0 0 0 0 0 0 0 0 0 0 0 0 0 0 0 0 0 0 0 0 0 0 0 0 0 0 0 0 0 0 0 0 0 0 0 0 0 0 0 0 0 0 0 0 0 0 0 0 0 0 0 0 0 0 0 0 0 0 0 0 0 0 0 0 0 0 0 0 0 0 0 0 0 0 0 0 0 0 0 0 0 0 0 0 0 0 0 0 0 0 0 0 0 0 0 0 0 0 0 0 0 0 0 0 0 0 0 0 0 0 0 0 0 0 0 0 0 0 0 0 0 0 0 0 0 0 0 0 0 0 0 0 0 0 0 0 0 0 0 0 0 0 0 0 0 0 0 0 0 0 0 0 0 0 0 0 0 0 0 0 0 0 0 0 0 0 0 0 0 0 0 0 0 0 0 0 0 0 0 0 0 0 0 0 0 0 1 1 1 1 1 1 1 1 1 1 1 1 1 1 1 1 1 1 1 1 1 1 1 1 1 1 1 1 1 1 1 1 1 1 1 1 1 1 1 1 1 1 1 1 1 1 1 1 1 1 1 1 1 1 </DataArray>
        <DataArray type="Float64" Name="phi" format="ascii">1 0.9883481487914867 1 0.9883406533906335 0.9771065817463057 0.9770916993243843 1 0.9883180541443242 0.9662855069366417 0.9662634494349923 0.9770468309677675 1 0.9882800067375748 0.9558948829272628 0.9558659565983564 0.9661969573802079 0.9769713034620154 1 0.9882259195855808 0.9459442366093452 0.9459088290578865 0.955778773023699 0.9660850582186878 0.9768639608078545 1 0.9881549256146583 0.9364425061304908 0.9364010706194081 0.9458021330127242 0.9556321016392844 0.9659260835640245 0.9767231102191998 1 0.9880658392548146 0.9273979142368937 0.9273509523687037 0.9362762397836102 0.9456227098144313 0.9554238342418082 0.9657175939485875 0.9765464400060462 1 0.9879570945241356 0.9188178752139387 0.9187659191164405 0.9272095099233781 0.9360664217613005 0.9453680988053647 0.9551508945259489 0.965456264823775 0.9763309017171625 1 0.9878266578674016 0.9107089364385417 0.9106525314950052 0.9186094792252635 0.9269718980699514 0.9357688991184616 0.9450347184228821 0.9548091017417896 0.9651377237741019 0.9760725448840791 1 0.9876719060849887 0.9030767535450157 0.9030164425377989 0.9104827466020076 0.9183468239980827 0.9266352401197226 0.9353797282312466 0.9446177181083991 0.9543929773759946 0.9647563237604753 0.9757662867253897 1 0.987489454507592 0.8959260965153972 0.8958624058303459 0.9028349551392342 0.910197857058709 0.9179750110291763 0.9261953752242313 0.934893589832653 0.9441107702164148 0.9538954783173611 0.9643048297173954 0.9754055899697351 1 0.9872749122318873 0.8892608827342763 0.8891943110345165 0.8956708066785357 0.9025306163468384 0.90979493957651 0.9174897999036505 0.9256467166767837 0.9343035812999995 0.9435057861332063 0.9533076322818204 0.9637739845611477 0.9749820073553781 1 0.9870225273594169 0.8830842322340793 0.8830152417845419 0.8889941049852202 0.8953497087057665 0.9021005947611986 0.9092697976931836 0.9168855253811126 0.924982057525798 0.9336009373113271 0.9427925340924512 0.9526180401004227 0.9631519032382123 0.9744845274853108 1 0.9867246612963563 0.8773985399811832 0.877327550610597 0.8828078217962392 0.8886587854405912 0.8948964311610192 0.9015408424931799 0.908616854641377 0.9161549260720513 0.9241923135705757 0.932774660513925 0.941958126900993 0.9518121928783055 0.9624232157907746 0.9738986164219234 0.9863709884532725 0.8722055600568316 0.8721329455939468 0.877114179808183 0.8824606226298429 0.8881858663807943 0.894307157899579 0.900846010214294 0.9078290112397273 0.9152889224634102 0.9232661908687704 0.9318110375426226 0.9409863348660581 0.9508715269559093 0.9615678354291922 0.8675064968856913 0.8674325838050444 0.8719147468564169 0.8767572180634439 0.8819713827946536 0.8875718245361531 0.8935768750923656 0.9000093369990783 0.9068974662187832 0.914276337141153 0.922189761803317 0.9306930079093519 0.9398566612227652 0.9497721012133949 0.8633020991667101 0.8632271671233875 0.8672105360358775 0.8715498982949208 0.8762546450893107 0.8813369119440492 0.8868120586559449 0.8926992928911971 0.8990225153106772 0.9058114969266881 0.9131035497969344 0.9209459310467827 0.9293993441268367 0.9385430926846374 0.8595927527773586 0.8595170366929389 0.8630021072027189 0.8668394300716965 0.8710366260196409 0.8756036244650913 0.8805530695251758 0.8859008407469949 0.8916667535395396 0.8978755330433658 0.904558200139953 0.9117540809774098 0.9195137716667227 0.9279035921032353 0.856302262951945 0.8592896660685332 0.8626261313452442 0.8663177339998527 0.8703724521565684 0.8748004988807854 0.8796147419948052 0.884831263095982 0.8904701305115631 0.896556497485293 0.9031221966758187 0.9102081031984272 0.9178677148721793 0.9370124052723406 0.9261727150616023 0.8589099780372318 0.8620979374688136 0.8656433196338006 0.8695542036874061 0.8738407890788191 0.8785158230276059 0.8835951871095173 0.8890987266222993 0.8950514511918989 0.9014853112067681 0.9084418890092119 0.9159765901977626 0.8583768822349277 0.8614157275816747 0.8648134820329849 0.8685780287565028 0.8727192009798994 0.8772492032131636 0.8821832032314468 0.8875401842244937 0.8933441981988506 0.8996262525311132 0.9064272280869825 0.913802547582008 0.8605772353467898 0.8638249690883143 0.8674394246126583 0.8714296472439906 0.8758067785103947 0.8805846157299754 0.8857804282547684 0.8914161722572517 0.8975203430949098 0.8595797653660692 0.8626740247982441 0.8661332827519252 0.8699652917049385 0.8741794903132283 0.8787874722549486 0.8838036736796899 0.8892463985575287 0.8584202471665278 0.8613564508968777 0.8646539584265084 0.8683186277131578 0.8723574143815405 0.8767786658300579 0.88159254318351 0.8868116279995425 0.859867692574246 0.8664816042848178 0.8703299208698987 0.8745441459750026 0.8791283581176554 0.8924518009244472 0.8611511624944113 0.8644458167331376 0.8680859325685288 0.8720692846095842 0.862202780466322 0.8656143118845945 0.8693394483548256 0.8568802473335496 0.8597443067673607 0.862904406739182 0.8570629960654087 0.8541528556457495 0.8489343124298032 1 0.9732047790648036 0.8563785695780549 0.8560731578720228 0.935221867064303 0.9241653917356992 0.9041308880653959 0.8951393843562837 0.8570953075853525 0.8629953734026232 0.8840867576365049 0.8556013659076043 0.8763916829925958 0.8591148756176801 0.8544415443009513 0.8663408267704744 0.8599467782127815 0.8517939967811005 0.8536594696802328 0.8535827288325026 0.8533523533279493 0.8556907036574888 0.8551539991275559 0.8576888833297875 0.8568441143850113 0.8558403828792731 0.8546752317126328 0.8533460179752356 0.8518500125918126 0.8582029550435565 0.8539347566036101 0.8563573584705552 0.8543261389892772 0.9605591525282623 0.948482722015364 0.8521049027733056 1 0.9859472379055466 0.9723763368536023 0.9469622497473681 0.8496899379060413 0.9331161465805627 0.9218299638834443 0.9112999702353846 0.9015142692664119 0.8470785845787847 0.8894232809188214 0.881045686168008 0.8733632144664308 0.844269657569901 0.8630615489516238 0.8567341148527676 0.851010033365361 0.8458612585845109 </DataArray>
      </PointData>
    </Piece>
  </UnstructuredGrid>
</VTKFile>
