<?xml version="1.0"?>
<VTKFile type="UnstructuredGrid" version="2.2">
  <UnstructuredGrid>
    <Piece NumberOfPoints="334" NumberOfCells="295">
      <Points>
        <DataArray type="Float64" NumberOfComponents="3" format="ascii">0.5600000000000001 0.32 0 0.5599999999999999 0.34 0 0.5799999999999998 0.32 0 0.54 0.32 0 0.5600000000000001 0.3 0 0.5799999999999998 0.2999999999999999 0 0.52 0.32 0 0.5199999999999999 0.34 0 0.54 0.3 0 0.5600000000000001 0.28 0 0.5799999999999998 0.28 0 0.5 0.32 0 0.52 0.3 0 0.54 0.28 0 0.5600000000000001 0.26 0 0.5799999999999998 0.26 0 0.48 0.32 0 0.4799999999999998 0.34 0 0.5 0.3 0 0.52 0.28 0 0.54 0.26 0 0.5600000000000001 0.24 0 0.46 0.32 0 0.4599999999999999 0.34 0 0.48 0.3 0 0.5 0.28 0 0.52 0.26 0 0.54 0.24 0 0.5600000000000001 0.22 0 0.5799999999999998 0.2199999999999999 0 0.44 0.32 0 0.46 0.3 0 0.48 0.28 0 0.5 0.26 0 0.52 0.24 0 0.54 0.22 0 0.5600000000000001 0.2 0 0.5800000000000001 0.2 0 0.42 0.32 0 0.44 0.3 0 0.46 0.28 0 0.48 0.26 0 0.5 0.24 0 0.52 0.22 0 0.54 0.2 0 0.5999999999999999 0.1999999999999999 0 0.6000000000000001 0.22 0 0.5600000000000001 0.18 0 0.5800000000000001 0.18 0 0.4 0.32 0 0.3999999999999999 0.34 0 0.42 0.3 0 0.44 0.28 0 0.46 0.26 0 0.48 0.24 0 0.5 0.22 0 0.52 0.2 0 0.54 0.18 0 0.5600000000000001 0.16 0 0.5800000000000001 0.16 0 0.38 0.32 0 0.4 0.3 0 0.42 0.28 0 0.44 0.26 0 0.46 0.24 0 0.48 0.22 0 0.5 0.2 0 0.52 0.18 0 0.54 0.16 0 0.5600000000000001 0.14 0 0.5800000000000001 0.14 0 0.36 0.32 0 0.38 0.3 0 0.4 0.28 0 0.42 0.26 0 0.44 0.24 0 0.46 0.22 0 0.48 0.2 0 0.5 0.18 0 0.52 0.16 0 0.54 0.14 0 0.5999999999999999 0.14 0 0.5600000000000001 0.12 0 0.5800000000000001 0.12 0 0.36 0.3 0 0.38 0.28 0 0.4 0.26 0 0.42 0.24 0 0.44 0.22 0 0.46 0.2 0 0.48 0.18 0 0.5 0.16 0 0.52 0.14 0 0.54 0.12 0 0.5999999999999999 0.12 0 0.5600000000000001 0.1 0 0.5800000000000001 0.1 0 0.34 0.32 0 0.36 0.28 0 0.38 0.26 0 0.4 0.24 0 0.42 0.22 0 0.44 0.2 0 0.46 0.18 0 0.48 0.16 0 0.5 0.14 0 0.52 0.12 0 0.54 0.1 0 0.6000000000000001 0.1 0 0.5600000000000001 0.08 0 0.5800000000000001 0.08 0 0.36 0.26 0 0.38 0.24 0 0.4 0.22 0 0.42 0.2 0 0.44 0.18 0 0.46 0.16 0 0.48 0.14 0 0.5 0.12 0 0.52 0.1 0 0.54 0.08 0 0.6200000000000001 0.12 0 0.6000000000000001 0.08 0 0.5600000000000001 0.06 0 0.5800000000000001 0.06 0 0.34 0.2600000000000001 0 0.36 0.24 0 0.38 0.22 0 0.4 0.2 0 0.42 0.18 0 0.44 0.16 0 0.46 0.14 0 0.48 0.12 0 0.5 0.1 0 0.52 0.08 0 0.54 0.06 0 0.6199999999999999 0.07999999999999997 0 0.6000000000000001 0.06 0 0.5600000000000001 0.04 0 0.5800000000000001 0.04 0 0.34 0.24 0 0.36 0.22 0 0.38 0.2 0 0.4 0.18 0 0.42 0.16 0 0.44 0.14 0 0.46 0.12 0 0.48 0.1 0 0.5 0.08 0 0.52 0.06 0 0.54 0.04 0 0.6199999999999999 0.05999999999999998 0 0.6000000000000001 0.04 0 0.5600000000000001 0.02 0 0.5800000000000001 0.02 0 0.34 0.22 0 0.36 0.2 0 0.38 0.18 0 0.4 0.16 0 0.42 0.14 0 0.44 0.12 0 0.46 0.1 0 0.48 0.08 0 0.5 0.06 0 0.52 0.04 0 0.54 0.02 0 0.6199999999999999 0.03999999999999999 0 0.6000000000000001 0.02 0 0.5600000000000002 -2.220446049250313e-18 0 0.5799999999999998 -1.110223024625157e-18 0 0.32 0.22 0 0.34 0.2 0 0.36 0.18 0 0.38 0.16 0 0.4 0.14 0 0.42 0.12 0 0.44 0.1 0 0.46 0.08 0 0.48 0.06 0 0.5 0.04 0 0.52 0.02 0 0.5400000000000001 -2.220446049250313e-18 0 0.5999999999999999 -1.110223024625157e-18 0 0.32 0.2 0 0.34 0.18 0 0.36 0.16 0 0.38 0.14 0 0.4 0.12 0 0.42 0.1 0 0.44 0.08 0 0.46 0.06 0 0.48 0.04 0 0.5 0.02 0 0.5200000000000001 -2.220446049250313e-18 0 0.34 0.16 0 0.36 0.14 0 0.38 0.12 0 0.4 0.1 0 0.42 0.08 0 0.44 0.06 0 0.46 0.04 0 0.48 0.02 0 0.5000000000000001 -2.220446049250313e-18 0 0.32 0.16 0 0.34 0.14 0 0.36 0.12 0 0.38 0.1 0 0.4 0.08 0 0.42 0.06 0 0.44 0.04 0 0.46 0.02 0 0.48 -2.220446049250313e-18 0 0.3 0.16 0 0.2999999999999999 0.1799999999999999 0 0.32 0.14 0 0.34 0.12 0 0.36 0.1 0 0.38 0.08 0 0.4 0.06 0 0.42 0.04 0 0.44 0.02 0 0.46 -2.220446049250313e-18 0 0.32 0.12 0 0.34 0.1 0 0.36 0.08 0 0.38 0.06 0 0.4 0.04 0 0.42 0.02 0 0.44 -2.220446049250313e-18 0 0.3 0.12 0 0.32 0.1 0 0.34 0.08 0 0.36 0.06 0 0.38 0.04 0 0.4 0.02 0 0.42 -2.220446049250313e-18 0 0.3 0.1 0 0.32 0.08 0 0.34 0.06 0 0.36 0.04 0 0.38 0.02 0 0.4 -2.220446049250313e-18 0 0.3 0.08 0 0.32 0.06 0 0.34 0.04 0 0.36 0.02 0 0.38 -2.220446049250313e-18 0 0.28 0.08 0 0.3 0.06 0 0.32 0.04 0 0.34 0.02 0 0.36 -2.220446049250313e-18 0 0.28 0.06 0 0.3 0.04 0 0.32 0.02 0 0.34 -2.220446049250313e-18 0 0.28 0.04 0 0.3 0.02 0 0.32 -2.220446049250313e-18 0 0.3 -2.220446049250313e-18 0 0.2800000000000001 -2.220446049250313e-18 0 0.5800000000000001 0.3400000000000001 0 0.5399999999999999 0.34 0 0.4999999999999998 0.34 0 0.5799999999999998 0.2399999999999999 0 0.4399999999999998 0.34 0 0.4199999999999998 0.34 0 0.5999999999999999 0.1799999999999999 0 0.3799999999999999 0.34 0 0.5999999999999999 0.16 0 0.3599999999999999 0.34 0 0.34 0.3 0 0.34 0.28 0 0.6199999999999999 0.09999999999999996 0 0.32 0.2399999999999999 0 0.6199999999999999 0.01999999999999999 0 0.6199999999999999 -1.110223024625157e-18 0 0.32 0.18 0 0.3 0.14 0 0.28 0.09999999999999996 0 0.2600000000000001 0.08 0 0.26 0.09999999999999996 0 0.2600000000000001 0.06 0 0.2600000000000001 0.04 0 0.2800000000000001 0.02 0 0.2399999999999999 0.03999999999999999 0 0.2399999999999999 0.05999999999999998 0 0.2399999999999999 0.07999999999999997 0 0.24 0.1 0 0.26 -1.110223024625157e-18 0 0.26 0.01999999999999999 0 0.2600000000000001 0.12 0 0.28 0.12 0 0.28 0.14 0 0.28 0.16 0 0.2800000000000001 0.18 0 0.2999999999999999 0.1999999999999999 0 0.2999999999999999 0.2199999999999999 0 0.3 0.24 0 0.32 0.26 0 0.32 0.28 0 0.32 0.2999999999999999 0 0.3200000000000001 0.3200000000000001 0 0.3400000000000001 0.3400000000000001 0 0.36 0.36 0 0.38 0.36 0 0.4 0.36 0 0.42 0.36 0 0.44 0.36 0 0.46 0.36 0 0.48 0.36 0 0.4999999999999999 0.36 0 0.5200000000000001 0.36 0 0.5400000000000001 0.36 0 0.5600000000000002 0.36 0 0.58 0.36 0 0.6 0.24 0 0.6 0.2600000000000001 0 0.6 0.28 0 0.6 0.3 0 0.6 0.32 0 0.6 0.34 0 0.62 0.14 0 0.62 0.16 0 0.62 0.18 0 0.62 0.2 0 0.62 0.22 0 0.64 -2.220446049250313e-18 0 0.64 0.02 0 0.64 0.04 0 0.64 0.06 0 0.64 0.08 0 0.64 0.1 0 0.64 0.12 0 </DataArray>
      </Points>
      <Cells>
        <DataArray type="Int32" Name="connectivity" format="ascii">0 1 261 2 3 262 1 0 4 0 2 5 6 7 262 3 8 3 0 4 9 4 5 10 11 263 7 6 12 6 3 8 13 8 4 9 14 9 10 15 16 17 263 11 18 11 6 12 19 12 8 13 20 13 9 14 21 14 15 264 22 23 17 16 24 16 11 18 25 18 12 19 26 19 13 20 27 20 14 21 28 21 264 29 30 265 23 22 31 22 16 24 32 24 18 25 33 25 19 26 34 26 20 27 35 27 21 28 36 28 29 37 38 266 265 30 39 30 22 31 40 31 24 32 41 32 25 33 42 33 26 34 43 34 27 35 44 35 28 36 37 29 46 45 47 36 37 48 49 50 266 38 51 38 30 39 52 39 31 40 53 40 32 41 54 41 33 42 55 42 34 43 56 43 35 44 57 44 36 47 48 37 45 267 58 47 48 59 60 268 50 49 61 49 38 51 62 51 39 52 63 52 40 53 64 53 41 54 65 54 42 55 66 55 43 56 67 56 44 57 68 57 47 58 59 48 267 269 69 58 59 70 71 270 268 60 72 60 49 61 73 61 51 62 74 62 52 63 75 63 53 64 76 64 54 65 77 65 55 66 78 66 56 67 79 67 57 68 80 68 58 69 70 59 269 81 82 69 70 83 84 71 60 72 85 72 61 73 86 73 62 74 87 74 63 75 88 75 64 76 89 76 65 77 90 77 66 78 91 78 67 79 92 79 68 80 93 80 69 82 83 70 81 94 95 82 83 96 271 97 71 84 98 84 72 85 99 85 73 86 100 86 74 87 101 87 75 88 102 88 76 89 103 89 77 90 104 90 78 91 105 91 79 92 106 92 80 93 107 93 82 95 96 83 94 108 109 95 96 110 272 271 84 98 111 98 85 99 112 99 86 100 113 100 87 101 114 101 88 102 115 102 89 103 116 103 90 104 117 104 91 105 118 105 92 106 119 106 93 107 120 107 95 109 108 94 121 273 110 96 108 122 123 109 110 124 125 272 98 111 126 111 99 112 127 112 100 113 128 113 101 114 129 114 102 115 130 115 103 116 131 116 104 117 132 117 105 118 133 118 106 119 134 119 107 120 135 120 109 123 122 108 273 136 124 110 122 137 138 123 124 139 140 125 111 126 141 126 112 127 142 127 113 128 143 128 114 129 144 129 115 130 145 130 116 131 146 131 117 132 147 132 118 133 148 133 119 134 149 134 120 135 150 135 123 138 137 122 136 151 139 124 137 152 153 138 139 154 155 140 126 141 156 141 127 142 157 142 128 143 158 143 129 144 159 144 130 145 160 145 131 146 161 146 132 147 162 147 133 148 163 148 134 149 164 149 135 150 165 150 138 153 152 137 151 166 154 139 152 167 168 153 154 169 170 274 140 155 171 155 141 156 172 156 142 157 173 157 143 158 174 158 144 159 175 159 145 160 176 160 146 161 177 161 147 162 178 162 148 163 179 163 149 164 180 164 150 165 181 165 153 168 167 152 166 275 169 154 167 182 183 170 155 171 184 171 156 172 185 172 157 173 186 173 158 174 187 174 159 175 188 175 160 176 189 176 161 177 190 177 162 178 191 178 163 179 192 179 164 180 193 180 165 181 182 167 275 276 277 183 171 184 194 184 172 185 195 185 173 186 196 186 174 187 197 187 175 188 198 188 176 189 199 189 177 190 200 190 178 191 201 191 179 192 202 192 180 193 203 277 184 194 204 194 185 195 205 195 186 196 206 196 187 197 207 197 188 198 208 198 189 199 209 199 190 200 210 200 191 201 211 201 192 202 212 213 277 203 214 203 194 204 215 204 195 205 216 205 196 206 217 206 197 207 218 207 198 208 219 208 199 209 220 209 200 210 221 210 201 211 278 212 203 214 222 214 204 215 223 215 205 216 224 216 206 217 225 217 207 218 226 218 208 219 227 219 209 220 228 220 210 221 229 278 214 222 230 222 215 223 231 223 216 224 232 224 217 225 233 225 218 226 234 226 219 227 235 227 220 228 236 229 222 230 237 230 223 231 238 231 224 232 239 232 225 233 240 233 226 234 241 234 227 235 242 236 230 237 243 237 231 238 244 238 232 239 245 239 233 240 246 240 234 241 247 279 236 242 248 242 237 243 249 243 238 244 250 244 239 245 251 245 240 246 280 281 279 247 252 247 242 248 253 248 243 249 254 249 244 250 255 250 245 251 282 280 247 252 256 252 248 253 257 253 249 254 258 254 250 255 283 282 252 256 284 256 253 257 259 257 254 258 260 284 257 259 285 286 282 283 286 287 280 282 287 288 281 280 289 290 284 260 290 283 256 284 281 291 292 279 279 292 229 236 292 293 278 229 293 294 212 278 294 295 213 212 213 296 183 277 296 297 170 183 297 298 274 170 274 299 125 140 299 300 272 125 300 301 271 272 301 302 97 271 97 303 270 71 270 304 305 268 268 305 306 50 50 306 307 266 266 307 308 265 265 308 309 23 23 309 310 17 17 310 311 263 263 311 312 7 7 312 313 262 262 313 314 1 1 314 315 261 29 264 316 46 264 15 317 316 15 10 318 317 10 5 319 318 5 2 320 319 2 261 321 320 94 81 322 121 81 269 323 322 269 267 324 323 267 45 325 324 45 46 326 325 276 275 328 327 275 166 329 328 166 151 330 329 151 136 331 330 136 273 332 331 273 121 333 332 </DataArray>
        <DataArray type="Int32" Name="offsets" format="ascii">4 8 12 16 20 24 28 32 36 40 44 48 52 56 60 64 68 72 76 80 84 88 92 96 100 104 108 112 116 120 124 128 132 136 140 144 148 152 156 160 164 168 172 176 180 184 188 192 196 200 204 208 212 216 220 224 228 232 236 240 244 248 252 256 260 264 268 272 276 280 284 288 292 296 300 304 308 312 316 320 324 328 332 336 340 344 348 352 356 360 364 368 372 376 380 384 388 392 396 400 404 408 412 416 420 424 428 432 436 440 444 448 452 456 460 464 468 472 476 480 484 488 492 496 500 504 508 512 516 520 524 528 532 536 540 544 548 552 556 560 564 568 572 576 580 584 588 592 596 600 604 608 612 616 620 624 628 632 636 640 644 648 652 656 660 664 668 672 676 680 684 688 692 696 700 704 708 712 716 720 724 728 732 736 740 744 748 752 756 760 764 768 772 776 780 784 788 792 796 800 804 808 812 816 820 824 828 832 836 840 844 848 852 856 860 864 868 872 876 880 884 888 892 896 900 904 908 912 916 920 924 928 932 936 940 944 948 952 956 960 964 968 972 976 980 984 988 992 996 1000 1004 1008 1012 1016 1020 1024 1028 1032 1036 1040 1044 1048 1052 1056 1060 1064 1068 1072 1076 1080 1084 1088 1092 1096 1100 1104 1108 1112 1116 1120 1124 1128 1132 1136 1140 1144 1148 1152 1156 1160 1164 1168 1172 1176 1180 </DataArray>
        <DataArray type="Int8" Name="types" format="ascii">70 70 70 70 70 70 70 70 70 70 70 70 70 70 70 70 70 70 70 70 70 70 70 70 70 70 70 70 70 70 70 70 70 70 70 70 70 70 70 70 70 70 70 70 70 70 70 70 70 70 70 70 70 70 70 70 70 70 70 70 70 70 70 70 70 70 70 70 70 70 70 70 70 70 70 70 70 70 70 70 70 70 70 70 70 70 70 70 70 70 70 70 70 70 70 70 70 70 70 70 70 70 70 70 70 70 70 70 70 70 70 70 70 70 70 70 70 70 70 70 70 70 70 70 70 70 70 70 70 70 70 70 70 70 70 70 70 70 70 70 70 70 70 70 70 70 70 70 70 70 70 70 70 70 70 70 70 70 70 70 70 70 70 70 70 70 70 70 70 70 70 70 70 70 70 70 70 70 70 70 70 70 70 70 70 70 70 70 70 70 70 70 70 70 70 70 70 70 70 70 70 70 70 70 70 70 70 70 70 70 70 70 70 70 70 70 70 70 70 70 70 70 70 70 70 70 70 70 70 70 70 70 70 70 70 70 70 70 70 70 70 70 70 70 70 70 70 70 70 70 70 70 70 70 70 70 70 70 70 70 70 70 70 70 70 70 70 70 70 70 70 70 70 70 70 70 70 70 70 70 70 70 70 70 70 70 70 70 70 70 70 70 70 70 70 </DataArray>
      </Cells>
      <CellData>
        <DataArray type="UInt8" Name="vtkGhostType" format="ascii" RangeMin="0" RangeMax="1">0 0 0 0 0 0 0 0 0 0 0 0 0 0 0 0 0 0 0 0 0 0 0 0 0 0 0 0 0 0 0 0 0 0 0 0 0 0 0 0 0 0 0 0 0 0 0 0 0 0 0 0 0 0 0 0 0 0 0 0 0 0 0 0 0 0 0 0 0 0 0 0 0 0 0 0 0 0 0 0 0 0 0 0 0 0 0 0 0 0 0 0 0 0 0 0 0 0 0 0 0 0 0 0 0 0 0 0 0 0 0 0 0 0 0 0 0 0 0 0 0 0 0 0 0 0 0 0 0 0 0 0 0 0 0 0 0 0 0 0 0 0 0 0 0 0 0 0 0 0 0 0 0 0 0 0 0 0 0 0 0 0 0 0 0 0 0 0 0 0 0 0 0 0 0 0 0 0 0 0 0 0 0 0 0 0 0 0 0 0 0 0 0 0 0 0 0 0 0 0 0 0 0 0 0 0 0 0 0 0 0 0 0 0 0 0 0 0 0 0 0 0 0 0 0 0 0 0 0 0 0 0 0 0 0 0 0 0 0 0 0 0 0 0 0 0 0 0 0 1 1 1 1 1 1 1 1 1 1 1 1 1 1 1 1 1 1 1 1 1 1 1 1 1 1 1 1 1 1 1 1 1 1 1 1 1 1 1 1 1 1 1 1 1 1 </DataArray>
        <DataArray type="Int64" IdType="1" Name="vtkOriginalCellIds" format="ascii" RangeMin="0" RangeMax="1249">504 505 506 507 508 509 510 511 512 513 514 515 516 517 518 519 520 521 522 523 524 525 526 527 528 529 530 531 532 533 534 535 536 537 538 539 540 541 542 543 544 545 546 547 548 549 550 551 552 553 554 555 556 557 558 559 560 561 562 563 564 565 566 567 568 569 570 571 572 573 574 575 576 577 578 579 580 581 582 583 584 585 586 587 588 589 590 591 592 593 594 595 596 597 598 599 600 601 602 603 604 605 606 607 608 609 610 611 612 613 614 615 616 617 618 619 620 621 622 623 624 625 626 627 628 629 630 631 632 633 634 635 636 637 638 639 640 641 642 643 644 645 646 647 648 649 650 651 652 653 654 655 656 657 658 659 660 661 662 663 664 665 666 667 668 669 670 671 672 673 674 675 676 677 678 679 680 681 682 683 684 685 686 687 688 689 690 691 692 693 694 695 696 697 698 699 700 701 702 703 704 705 706 707 708 709 710 711 712 713 714 715 716 717 718 719 720 721 722 723 724 725 726 727 728 729 730 731 732 733 734 735 736 737 738 739 740 741 742 743 744 745 746 747 748 749 750 751 752 1115 1129 1142 1102 1116 1169 1183 1195 1205 1214 1230 1236 1240 1246 1248 1249 907 908 909 917 925 933 941 949 957 965 973 981 987 0 2 5 9 14 19 482 474 465 455 1 503 501 498 494 489 483 </DataArray>
      </CellData>
      <PointData Scalars="phi">
        <DataArray type="Int64" IdType="1" Name="vtkOriginalPointIds" format="ascii" RangeMin="0" RangeMax="1325">534 535 536 537 538 539 540 541 542 543 544 545 546 547 548 549 550 551 552 553 554 555 556 557 558 559 560 561 562 563 564 565 566 567 568 569 570 571 572 573 574 575 576 577 578 579 580 581 582 583 584 585 586 587 588 589 590 591 592 593 594 595 596 597 598 599 600 601 602 603 604 605 606 607 608 609 610 611 612 613 614 615 616 617 618 619 620 621 622 623 624 625 626 627 628 629 630 631 632 633 634 635 636 637 638 639 640 641 642 643 644 645 646 647 648 649 650 651 652 653 654 655 656 657 658 659 660 661 662 663 664 665 666 667 668 669 670 671 672 673 674 675 676 677 678 679 680 681 682 683 684 685 686 687 688 689 690 691 692 693 694 695 696 697 698 699 700 701 702 703 704 705 706 707 708 709 710 711 712 713 714 715 716 717 718 719 720 721 722 723 724 725 726 727 728 729 730 731 732 733 734 735 736 737 738 739 740 741 742 743 744 745 746 747 748 749 750 751 752 753 754 755 756 757 758 759 760 761 762 763 764 765 766 767 768 769 770 771 772 773 774 775 776 777 778 779 780 781 782 783 784 785 786 787 788 789 790 791 792 793 794 1045 1034 1017 0 992 983 491 966 501 957 1325 1324 516 1319 531 533 1312 1281 1256 1214 1228 1200 1185 1186 1169 1184 1199 1213 1170 1171 1242 1257 1269 1280 1290 1306 1311 1316 1322 1323 956 946 947 948 958 967 975 984 993 1001 1009 1018 1026 1035 27 1 3 6 11 15 20 502 492 480 481 2 532 529 526 522 517 510 503 </DataArray>
        <DataArray type="UInt8" Name="vtkGhostType" format="ascii" RangeMin="0" RangeMax="1">0 0 0 0 0 0 0 0 0 0 0 0 0 0 0 0 0 0 0 0 0 0 0 0 0 0 0 0 0 0 0 0 0 0 0 0 0 0 0 0 0 0 0 0 0 0 0 0 0 0 0 0 0 0 0 0 0 0 0 0 0 0 0 0 0 0 0 0 0 0 0 0 0 0 0 0 0 0 0 0 0 0 0 0 0 0 0 0 0 0 0 0 0 0 0 0 0 0 0 0 0 0 0 0 0 0 0 0 0 0 0 0 0 0 0 0 0 0 0 0 0 0 0 0 0 0 0 0 0 0 0 0 0 0 0 0 0 0 0 0 0 0 0 0 0 0 0 0 0 0 0 0 0 0 0 0 0 0 0 0 0 0 0 0 0 0 0 0 0 0 0 0 0 0 0 0 0 0 0 0 0 0 0 0 0 0 0 0 0 0 0 0 0 0 0 0 0 0 0 0 0 0 0 0 0 0 0 0 0 0 0 0 0 0 0 0 0 0 0 0 0 0 0 0 0 0 0 0 0 0 0 0 0 0 0 0 0 0 0 0 0 0 0 0 0 0 0 0 0 0 0 0 0 0 0 0 0 0 0 0 0 1 1 1 1 1 1 1 1 1 1 1 1 1 1 1 1 1 1 1 1 1 1 1 1 1 1 1 1 1 1 1 1 1 1 1 1 1 1 1 1 1 1 1 1 1 1 1 1 1 1 1 1 1 1 1 1 1 1 1 1 1 1 1 1 1 1 1 1 1 1 1 1 1 </DataArray>
        <DataArray type="Float64" Name="phi" format="ascii">0.8026487624682977 0.8000161755234535 0.7983781834687748 0.8069242721063848 0.8055973847355582 0.8011064417737772 0.8111753614416952 0.8081687047231179 0.8100930446877279 0.8088633385683192 0.8041173631022022 0.8153731304796347 0.8145602565793004 0.8136144530015637 0.8124473563770505 0.807407091971769 0.819489925895016 0.816135498146377 0.8189662538083674 0.8183327050789795 0.817494273580172 0.8163491173591118 0.8235001039267235 0.8199885599421701 0.8232797121710995 0.8229803695563973 0.8225036668507436 0.8217386267409876 0.8205664692283663 0.8147955554901012 0.8273806926077293 0.8274717581206119 0.827521394375579 0.8274313873417184 0.8270859831957308 0.8263536611789664 0.8250941748647866 0.818870823680516 0.8311118959346963 0.8315168400167563 0.8319227628428113 0.8322352226365076 0.8323386065811406 0.832094638234421 0.831344951303985 0.8127437229447116 0.8090989403579021 0.8299218620387464 0.823173891779059 0.8346774023633026 0.8307841974561675 0.8353933767994298 0.8361556655786548 0.8368767805524069 0.8374461344545732 0.8377255744837425 0.8375470189581826 0.836716362975029 0.8350306074511129 0.8276721442373169 0.8380644850213822 0.8390841298586466 0.8401963512076152 0.8413231033401468 0.8423630944268503 0.8431851185406687 0.8436212636530086 0.843463103292235 0.8424679122105769 0.8403871291772406 0.8323160033352163 0.8412639060340501 0.8425762835466922 0.8440265758691448 0.8455478056361252 0.8470511860842086 0.8484182936854205 0.8494911701857691 0.8500617200590069 0.8498654000247495 0.8485916566498747 0.8244952590817618 0.8459337187090155 0.8370299339796239 0.8458612585845109 0.8476336363602622 0.8495316155954732 0.8514808356741336 0.8533798195326671 0.8550887007966239 0.8564141787764451 0.857092420426954 0.8567782045090531 0.8550635873648271 0.8284870884715797 0.8515704960092416 0.8416990611395929 0.844269657569901 0.851010033365361 0.8532623075462337 0.8556318369988891 0.8580362853444008 0.8603592957092898 0.8624339693354901 0.8640193476321207 0.8647717265562134 0.8642250707069703 0.8618270679456584 0.8323552169310566 0.8571246831765629 0.8461509780219695 0.8567341148527676 0.8594930815999984 0.8623668783026186 0.8652649890395999 0.8680539360466178 0.8705326043452033 0.8723942626075767 0.8731760643546669 0.8722214980376167 0.8687568866515519 0.8203862071164181 0.8359504773992187 0.862297877341998 0.8501405897900143 0.8599467782127815 0.8630615489516238 0.8663627132304085 0.8697851540180834 0.8732308724912954 0.8765475118090018 0.8794907923379114 0.8816608382572529 0.8824078988011302 0.8807548602858888 0.8755831201698744 0.8265341588256796 0.8390848684998427 0.8666362228152472 0.853354962389117 0.8663408267704744 0.8700250980099489 0.8739150401140247 0.877946058636741 0.8820152798847121 0.8859515462857205 0.889457251529008 0.8919968976958489 0.8926072817695627 0.8897180594803614 0.8816703969791566 0.8290394304307666 0.8415448840244607 0.8695735819263594 0.8554617718204022 0.8733632144664308 0.8776627726852936 0.8822022071991428 0.8869227024422587 0.8917230221554447 0.8964184376197978 0.9006498785627756 0.9036796410931904 0.9039740389244956 0.8987567204712726 0.8860475154329492 0.830970436116114 0.8431239993479172 0.8706202516338887 0.8561975939184231 0.8763916829925958 0.881045686168008 0.8860182071057068 0.8912858299655367 0.8968050791284111 0.9024906852585933 0.9081627822418582 0.9134068002254638 0.9171765630140687 0.9167088875032243 0.9058081521397959 0.8876435106490732 0.8436693071599717 0.8840867576365049 0.8894232809188214 0.8951406061952918 0.9012376489427983 0.907703075163189 0.9144973194229311 0.9214972381444133 0.9283022683692783 0.933475134249927 0.9316220250140401 0.9087346298700841 0.8985335264950169 0.9050837447082167 0.9121386277975467 0.9197472828871295 0.9279745200141435 0.9368853075642385 0.9463591730267835 0.9542405933065903 0.9363687300493199 0.9015142692664119 0.9084146446508929 0.9159030836411653 0.9240742526508615 0.9330820060193005 0.9432049063487253 0.9550523513706095 0.970537790812219 1 0.9041308880653959 0.8951393843562837 0.9112999702353846 0.9191021627773536 0.9276494944548549 0.9371215470544471 0.9478329623690518 0.9604095544153473 0.9763392374823033 1 0.9218299638834443 0.9306232496552339 0.9403578662520035 0.9513230279688473 0.9640372227826087 0.9795266523569768 1 0.9241653917356992 0.9331161465805627 0.9429884183594293 0.9540301022737401 0.966648383350831 0.9815503432233567 1 0.935221867064303 0.9451556827423795 0.9561813404645935 0.9686157934260005 0.9829588646940436 1 0.9469622497473681 0.9579251247226725 0.970149351362069 0.9839988009349295 1 0.948482722015364 0.9593613268937261 0.9713758772002482 0.9847988904046185 1 0.9605591525282623 0.9723763368536023 0.9854331369495043 1 0.9732047790648036 0.9859472379055466 1 1 1 0.7959349797787207 0.8041028603916344 0.8121878441321168 0.8109695884595878 0.8237261106330298 0.8273298186349939 0.8165546828909102 0.8340767114364526 0.8204909901182128 0.8371977354344077 0.8489343124298032 0.8541528556457495 0.8236027218991891 0.8693394483548256 0.8321929367994679 0.8326119223721654 0.8924518009244472 0.913802547582008 0.9370124052723406 0.9497721012133949 0.9385430926846374 0.9615678354291922 0.9738986164219234 0.9863709884532725 0.9744845274853108 0.9624232157907746 0.9508715269559093 0.9398566612227652 1 0.9867246612963563 0.9279035921032353 0.9261727150616023 0.9159765901977626 0.9064272280869825 0.8975203430949098 0.8868116279995425 0.8791283581176554 0.8720692846095842 0.862904406739182 0.8570629960654087 0.8517939967811005 0.8470785845787847 0.8401403883405436 0.8336456951643048 0.8305950293784232 0.827386199518754 0.8240290449660821 0.8205358676753999 0.8169214387100801 0.8132028939078326 0.809399516145948 0.8055324127672483 0.8016241074608386 0.7976980744225914 0.7937782475012899 0.8056494266463791 0.8024159784768788 0.7994135197852735 0.7966527982255212 0.7941415756090329 0.7918854672958299 0.8170065537639184 0.8135626108846168 0.8101314290565091 0.8067717808403885 0.803528036575346 0.8227509016944098 0.8224202506405476 0.8214504933404549 0.8199038582098863 0.817871181070788 0.8154574229363879 0.8127684108667679 </DataArray>
      </PointData>
    </Piece>
  </UnstructuredGrid>
</VTKFile>
