<?xml version="1.0"?>
<VTKFile type="UnstructuredGrid" version="2.2">
  <UnstructuredGrid>
    <Piece NumberOfPoints="326" NumberOfCells="287">
      <Points>
        <DataArray type="Float64" NumberOfComponents="3" format="ascii">0.98 0.3 0 1 0.3 0 0.96 0.3 0 0.9599999999999996 0.32 0 0.98 0.28 0 1 0.28 0 0.9400000000000001 0.3 0 0.96 0.28 0 0.98 0.26 0 1 0.26 0 0.92 0.3 0 0.9400000000000001 0.28 0 0.96 0.26 0 0.98 0.24 0 1 0.24 0 0.9400000000000001 0.26 0 0.96 0.24 0 0.98 0.22 0 1 0.22 0 0.92 0.26 0 0.9400000000000001 0.24 0 0.96 0.22 0 0.98 0.2 0 1 0.2 0 0.9 0.26 0 0.8999999999999997 0.28 0 0.92 0.24 0 0.9400000000000001 0.22 0 0.96 0.2 0 0.98 0.18 0 1 0.18 0 0.88 0.26 0 0.8799999999999997 0.28 0 0.9 0.24 0 0.92 0.22 0 0.9400000000000001 0.2 0 0.96 0.18 0 0.98 0.16 0 1 0.16 0 0.86 0.26 0 0.8599999999999997 0.28 0 0.88 0.24 0 0.9 0.22 0 0.92 0.2 0 0.9400000000000001 0.18 0 0.96 0.16 0 0.98 0.14 0 1 0.14 0 0.84 0.26 0 0.86 0.24 0 0.88 0.22 0 0.9 0.2 0 0.92 0.18 0 0.9400000000000001 0.16 0 0.96 0.14 0 0.98 0.12 0 1 0.12 0 0.8200000000000001 0.26 0 0.84 0.24 0 0.86 0.22 0 0.88 0.2 0 0.9 0.18 0 0.92 0.16 0 0.9400000000000001 0.14 0 0.96 0.12 0 0.98 0.1 0 1 0.1 0 0.8 0.26 0 0.8200000000000001 0.24 0 0.84 0.22 0 0.86 0.2 0 0.88 0.18 0 0.9 0.16 0 0.92 0.14 0 0.9400000000000001 0.12 0 0.96 0.1 0 0.98 0.08 0 1 0.08 0 0.78 0.26 0 0.8 0.24 0 0.8200000000000001 0.22 0 0.84 0.2 0 0.86 0.18 0 0.88 0.16 0 0.9 0.14 0 0.92 0.12 0 0.9400000000000001 0.1 0 0.96 0.08 0 0.98 0.06 0 1 0.06 0 0.76 0.2600000000000001 0 0.78 0.24 0 0.8 0.22 0 0.8200000000000001 0.2 0 0.84 0.18 0 0.86 0.16 0 0.88 0.14 0 0.9 0.12 0 0.92 0.1 0 0.9400000000000001 0.08 0 0.96 0.06 0 0.98 0.04 0 1 0.04 0 0.76 0.24 0 0.78 0.22 0 0.8 0.2 0 0.8200000000000001 0.18 0 0.84 0.16 0 0.86 0.14 0 0.88 0.12 0 0.9 0.1 0 0.92 0.08 0 0.9400000000000001 0.06 0 0.96 0.04 0 0.98 0.02 0 1 0.02 0 0.78 0.2 0 0.8 0.18 0 0.8200000000000001 0.16 0 0.84 0.14 0 0.86 0.12 0 0.88 0.1 0 0.9 0.08 0 0.92 0.06 0 0.9400000000000001 0.04 0 0.96 0.02 0 0.98 -2.220446049250313e-18 0 1 -2.220446049250313e-18 0 0.76 0.2 0 0.78 0.18 0 0.8 0.16 0 0.8200000000000001 0.14 0 0.84 0.12 0 0.86 0.1 0 0.88 0.08 0 0.9 0.06 0 0.92 0.04 0 0.9400000000000001 0.02 0 0.96 -2.220446049250313e-18 0 0.74 0.2 0 0.76 0.18 0 0.78 0.16 0 0.8 0.14 0 0.8200000000000001 0.12 0 0.84 0.1 0 0.86 0.08 0 0.88 0.06 0 0.9 0.04 0 0.92 0.02 0 0.9400000000000001 -2.220446049250313e-18 0 0.72 0.2 0 0.74 0.18 0 0.76 0.16 0 0.78 0.14 0 0.8 0.12 0 0.8200000000000001 0.1 0 0.84 0.08 0 0.86 0.06 0 0.88 0.04 0 0.9 0.02 0 0.92 -2.220446049250313e-18 0 0.7000000000000001 0.2 0 0.72 0.18 0 0.74 0.16 0 0.76 0.14 0 0.78 0.12 0 0.8 0.1 0 0.8200000000000001 0.08 0 0.84 0.06 0 0.86 0.04 0 0.88 0.02 0 0.9 -2.220446049250313e-18 0 0.68 0.2 0 0.6799999999999999 0.2199999999999999 0 0.7000000000000001 0.18 0 0.72 0.16 0 0.74 0.14 0 0.76 0.12 0 0.78 0.1 0 0.8 0.08 0 0.8200000000000001 0.06 0 0.84 0.04 0 0.86 0.02 0 0.88 -2.220446049250313e-18 0 0.68 0.18 0 0.7000000000000001 0.16 0 0.72 0.14 0 0.74 0.12 0 0.76 0.1 0 0.78 0.08 0 0.8 0.06 0 0.8200000000000001 0.04 0 0.84 0.02 0 0.86 -2.220446049250313e-18 0 0.66 0.18 0 0.68 0.16 0 0.7000000000000001 0.14 0 0.72 0.12 0 0.74 0.1 0 0.76 0.08 0 0.78 0.06 0 0.8 0.04 0 0.8200000000000001 0.02 0 0.84 -2.220446049250313e-18 0 0.64 0.18 0 0.6399999999999999 0.1999999999999999 0 0.66 0.16 0 0.68 0.14 0 0.7000000000000001 0.12 0 0.72 0.1 0 0.74 0.08 0 0.76 0.06 0 0.78 0.04 0 0.8 0.02 0 0.8200000000000001 -2.220446049250313e-18 0 0.62 0.18 0 0.6199999999999999 0.1999999999999999 0 0.64 0.16 0 0.66 0.14 0 0.68 0.12 0 0.7000000000000001 0.1 0 0.72 0.08 0 0.74 0.06 0 0.76 0.04 0 0.78 0.02 0 0.8 -2.220446049250313e-18 0 0.6 0.18 0 0.62 0.16 0 0.64 0.14 0 0.66 0.12 0 0.68 0.1 0 0.7000000000000001 0.08 0 0.72 0.06 0 0.74 0.04 0 0.76 0.02 0 0.78 -2.220446049250313e-18 0 0.6 0.16 0 0.62 0.14 0 0.64 0.12 0 0.66 0.1 0 0.68 0.08 0 0.7000000000000001 0.06 0 0.72 0.04 0 0.74 0.02 0 0.76 -2.220446049250313e-18 0 0.64 0.1 0 0.66 0.08 0 0.68 0.06 0 0.7000000000000001 0.04 0 0.72 0.02 0 0.74 -2.220446049250313e-18 0 0.62 0.1 0 0.64 0.08 0 0.66 0.06 0 0.68 0.04 0 0.7000000000000001 0.02 0 0.72 -2.220446049250313e-18 0 0.64 0.06 0 0.66 0.04 0 0.68 0.02 0 0.7000000000000001 -2.220446049250313e-18 0 0.64 0.04 0 0.66 0.02 0 0.68 -2.220446049250313e-18 0 0.64 0.02 0 0.66 -2.220446049250313e-18 0 0.62 0.02 0 0.64 -2.220446049250313e-18 0 0.62 -2.220446049250313e-18 0 0.9799999999999996 0.32 0 1 0.32 0 0.9399999999999997 0.32 0 0.9199999999999997 0.32 0 0.92 0.28 0 0.8399999999999996 0.28 0 0.8199999999999997 0.28 0 0.7999999999999997 0.28 0 0.7799999999999998 0.28 0 0.7599999999999998 0.28 0 0.76 0.22 0 0.7399999999999999 0.2199999999999999 0 0.7199999999999999 0.2199999999999999 0 0.7 0.2199999999999999 0 0.6599999999999999 0.1999999999999999 0 0.5999999999999999 0.1999999999999999 0 0.6 0.14 0 0.62 0.12 0 0.6000000000000001 0.12 0 0.62 0.08 0 0.62 0.06 0 0.62 0.04 0 0.5799999999999998 0.12 0 0.5799999999999998 0.14 0 0.5799999999999998 0.16 0 0.5799999999999998 0.1799999999999999 0 0.5800000000000001 0.2 0 0.5999999999999999 -1.110223024625157e-18 0 0.5999999999999999 0.01999999999999999 0 0.5999999999999999 0.03999999999999999 0 0.5999999999999999 0.05999999999999998 0 0.5999999999999999 0.07999999999999997 0 0.5999999999999999 0.09999999999999996 0 0.6000000000000001 0.22 0 0.6200000000000001 0.22 0 0.6400000000000001 0.22 0 0.6600000000000001 0.22 0 0.6800000000000002 0.24 0 0.7000000000000002 0.24 0 0.7200000000000001 0.24 0 0.7399999999999999 0.2399999999999999 0 0.7399999999999999 0.26 0 0.7400000000000001 0.2800000000000001 0 0.7600000000000001 0.3 0 0.78 0.3 0 0.8 0.3 0 0.8200000000000001 0.3 0 0.84 0.3 0 0.86 0.3 0 0.88 0.3 0 0.8999999999999997 0.2999999999999999 0 0.9 0.3200000000000001 0 0.92 0.3400000000000001 0 0.9400000000000001 0.3400000000000001 0 0.96 0.3400000000000001 0 0.98 0.3400000000000001 0 1 0.34 0 </DataArray>
      </Points>
      <Cells>
        <DataArray type="Int32" Name="connectivity" format="ascii">0 269 270 1 2 3 269 0 4 0 1 5 6 271 3 2 7 2 0 4 8 4 5 9 10 272 271 6 11 6 2 7 12 7 4 8 13 8 9 14 273 10 6 11 15 11 7 12 16 12 8 13 17 13 14 18 19 273 11 15 20 15 12 16 21 16 13 17 22 17 18 23 24 25 273 19 26 19 15 20 27 20 16 21 28 21 17 22 29 22 23 30 31 32 25 24 33 24 19 26 34 26 20 27 35 27 21 28 36 28 22 29 37 29 30 38 39 40 32 31 41 31 24 33 42 33 26 34 43 34 27 35 44 35 28 36 45 36 29 37 46 37 38 47 48 274 40 39 49 39 31 41 50 41 33 42 51 42 34 43 52 43 35 44 53 44 36 45 54 45 37 46 55 46 47 56 57 275 274 48 58 48 39 49 59 49 41 50 60 50 42 51 61 51 43 52 62 52 44 53 63 53 45 54 64 54 46 55 65 55 56 66 67 276 275 57 68 57 48 58 69 58 49 59 70 59 50 60 71 60 51 61 72 61 52 62 73 62 53 63 74 63 54 64 75 64 55 65 76 65 66 77 78 277 276 67 79 67 57 68 80 68 58 69 81 69 59 70 82 70 60 71 83 71 61 72 84 72 62 73 85 73 63 74 86 74 64 75 87 75 65 76 88 76 77 89 90 278 277 78 91 78 67 79 92 79 68 80 93 80 69 81 94 81 70 82 95 82 71 83 96 83 72 84 97 84 73 85 98 85 74 86 99 86 75 87 100 87 76 88 101 88 89 102 103 90 78 91 104 91 79 92 105 92 80 93 106 93 81 94 107 94 82 95 108 95 83 96 109 96 84 97 110 97 85 98 111 98 86 99 112 99 87 100 113 100 88 101 114 101 102 115 279 103 91 104 116 104 92 105 117 105 93 106 118 106 94 107 119 107 95 108 120 108 96 109 121 109 97 110 122 110 98 111 123 111 99 112 124 112 100 113 125 113 101 114 126 114 115 127 128 279 104 116 129 116 105 117 130 117 106 118 131 118 107 119 132 119 108 120 133 120 109 121 134 121 110 122 135 122 111 123 136 123 112 124 137 124 113 125 138 125 114 126 139 280 279 128 140 128 116 129 141 129 117 130 142 130 118 131 143 131 119 132 144 132 120 133 145 133 121 134 146 134 122 135 147 135 123 136 148 136 124 137 149 137 125 138 150 281 280 139 151 139 128 140 152 140 129 141 153 141 130 142 154 142 131 143 155 143 132 144 156 144 133 145 157 145 134 146 158 146 135 147 159 147 136 148 160 148 137 149 161 282 281 150 162 150 139 151 163 151 140 152 164 152 141 153 165 153 142 154 166 154 143 155 167 155 144 156 168 156 145 157 169 157 146 158 170 158 147 159 171 159 148 160 172 173 282 161 174 161 150 162 175 162 151 163 176 163 152 164 177 164 153 165 178 165 154 166 179 166 155 167 180 167 156 168 181 168 157 169 182 169 158 170 183 170 159 171 184 172 161 174 185 174 162 175 186 175 163 176 187 176 164 177 188 177 165 178 189 178 166 179 190 179 167 180 191 180 168 181 192 181 169 182 193 182 170 183 194 283 172 184 195 184 174 185 196 185 175 186 197 186 176 187 198 187 177 188 199 188 178 189 200 189 179 190 201 190 180 191 202 191 181 192 203 192 182 193 204 205 283 194 206 194 184 195 207 195 185 196 208 196 186 197 209 197 187 198 210 198 188 199 211 199 189 200 212 200 190 201 213 201 191 202 214 202 192 203 215 216 205 204 217 204 194 206 218 206 195 207 219 207 196 208 220 208 197 209 221 209 198 210 222 210 199 211 223 211 200 212 224 212 201 213 225 213 202 214 226 284 216 215 227 215 204 217 228 217 206 218 229 218 207 219 230 219 208 220 231 220 209 221 232 221 210 222 233 222 211 223 234 223 212 224 235 224 213 225 236 226 215 227 237 227 217 228 238 228 218 229 239 229 219 230 240 230 220 231 241 231 221 232 242 232 222 233 243 233 223 234 244 234 224 235 285 236 227 237 286 237 228 238 245 238 229 239 246 239 230 240 247 240 231 241 248 241 232 242 249 242 233 243 250 243 234 244 287 285 237 286 251 286 238 245 252 245 239 246 253 246 240 247 254 247 241 248 255 248 242 249 256 249 243 250 288 251 245 252 257 252 246 253 258 253 247 254 259 254 248 255 260 255 249 256 289 288 252 257 261 257 253 258 262 258 254 259 263 259 255 260 290 289 257 261 264 261 258 262 265 262 259 263 266 290 261 264 267 264 262 265 268 266 264 267 291 292 285 287 292 293 236 285 293 294 226 236 294 295 284 226 296 297 266 268 297 298 290 266 298 299 289 290 299 300 288 289 300 301 251 288 301 287 286 251 284 302 303 216 216 303 304 205 205 304 305 283 283 305 173 172 173 306 307 282 282 307 308 281 281 308 309 280 280 309 103 279 309 310 90 103 310 311 278 90 278 312 313 277 277 313 314 276 276 314 315 275 275 315 316 274 274 316 317 40 40 317 318 32 32 318 319 25 25 319 10 273 319 320 272 10 272 321 322 271 271 322 323 3 3 323 324 269 269 324 325 270 </DataArray>
        <DataArray type="Int32" Name="offsets" format="ascii">4 8 12 16 20 24 28 32 36 40 44 48 52 56 60 64 68 72 76 80 84 88 92 96 100 104 108 112 116 120 124 128 132 136 140 144 148 152 156 160 164 168 172 176 180 184 188 192 196 200 204 208 212 216 220 224 228 232 236 240 244 248 252 256 260 264 268 272 276 280 284 288 292 296 300 304 308 312 316 320 324 328 332 336 340 344 348 352 356 360 364 368 372 376 380 384 388 392 396 400 404 408 412 416 420 424 428 432 436 440 444 448 452 456 460 464 468 472 476 480 484 488 492 496 500 504 508 512 516 520 524 528 532 536 540 544 548 552 556 560 564 568 572 576 580 584 588 592 596 600 604 608 612 616 620 624 628 632 636 640 644 648 652 656 660 664 668 672 676 680 684 688 692 696 700 704 708 712 716 720 724 728 732 736 740 744 748 752 756 760 764 768 772 776 780 784 788 792 796 800 804 808 812 816 820 824 828 832 836 840 844 848 852 856 860 864 868 872 876 880 884 888 892 896 900 904 908 912 916 920 924 928 932 936 940 944 948 952 956 960 964 968 972 976 980 984 988 992 996 1000 1004 1008 1012 1016 1020 1024 1028 1032 1036 1040 1044 1048 1052 1056 1060 1064 1068 1072 1076 1080 1084 1088 1092 1096 1100 1104 1108 1112 1116 1120 1124 1128 1132 1136 1140 1144 1148 </DataArray>
        <DataArray type="Int8" Name="types" format="ascii">70 70 70 70 70 70 70 70 70 70 70 70 70 70 70 70 70 70 70 70 70 70 70 70 70 70 70 70 70 70 70 70 70 70 70 70 70 70 70 70 70 70 70 70 70 70 70 70 70 70 70 70 70 70 70 70 70 70 70 70 70 70 70 70 70 70 70 70 70 70 70 70 70 70 70 70 70 70 70 70 70 70 70 70 70 70 70 70 70 70 70 70 70 70 70 70 70 70 70 70 70 70 70 70 70 70 70 70 70 70 70 70 70 70 70 70 70 70 70 70 70 70 70 70 70 70 70 70 70 70 70 70 70 70 70 70 70 70 70 70 70 70 70 70 70 70 70 70 70 70 70 70 70 70 70 70 70 70 70 70 70 70 70 70 70 70 70 70 70 70 70 70 70 70 70 70 70 70 70 70 70 70 70 70 70 70 70 70 70 70 70 70 70 70 70 70 70 70 70 70 70 70 70 70 70 70 70 70 70 70 70 70 70 70 70 70 70 70 70 70 70 70 70 70 70 70 70 70 70 70 70 70 70 70 70 70 70 70 70 70 70 70 70 70 70 70 70 70 70 70 70 70 70 70 70 70 70 70 70 70 70 70 70 70 70 70 70 70 70 70 70 70 70 70 70 70 70 70 70 70 70 70 70 70 70 70 70 </DataArray>
      </Cells>
      <CellData>
        <DataArray type="UInt8" Name="vtkGhostType" format="ascii" RangeMin="0" RangeMax="1">0 0 0 0 0 0 0 0 0 0 0 0 0 0 0 0 0 0 0 0 0 0 0 0 0 0 0 0 0 0 0 0 0 0 0 0 0 0 0 0 0 0 0 0 0 0 0 0 0 0 0 0 0 0 0 0 0 0 0 0 0 0 0 0 0 0 0 0 0 0 0 0 0 0 0 0 0 0 0 0 0 0 0 0 0 0 0 0 0 0 0 0 0 0 0 0 0 0 0 0 0 0 0 0 0 0 0 0 0 0 0 0 0 0 0 0 0 0 0 0 0 0 0 0 0 0 0 0 0 0 0 0 0 0 0 0 0 0 0 0 0 0 0 0 0 0 0 0 0 0 0 0 0 0 0 0 0 0 0 0 0 0 0 0 0 0 0 0 0 0 0 0 0 0 0 0 0 0 0 0 0 0 0 0 0 0 0 0 0 0 0 0 0 0 0 0 0 0 0 0 0 0 0 0 0 0 0 0 0 0 0 0 0 0 0 0 0 0 0 0 0 0 0 0 0 0 0 0 0 0 0 0 0 0 0 0 0 0 0 0 0 0 0 0 0 0 0 0 0 0 0 0 0 0 1 1 1 1 1 1 1 1 1 1 1 1 1 1 1 1 1 1 1 1 1 1 1 1 1 1 1 1 1 1 1 1 1 </DataArray>
        <DataArray type="Int64" IdType="1" Name="vtkOriginalCellIds" format="ascii" RangeMin="1" RangeMax="680">250 251 252 253 254 255 256 257 258 259 260 261 262 263 264 265 266 267 268 269 270 271 272 273 274 275 276 277 278 279 280 281 282 283 284 285 286 287 288 289 290 291 292 293 294 295 296 297 298 299 300 301 302 303 304 305 306 307 308 309 310 311 312 313 314 315 316 317 318 319 320 321 322 323 324 325 326 327 328 329 330 331 332 333 334 335 336 337 338 339 340 341 342 343 344 345 346 347 348 349 350 351 352 353 354 355 356 357 358 359 360 361 362 363 364 365 366 367 368 369 370 371 372 373 374 375 376 377 378 379 380 381 382 383 384 385 386 387 388 389 390 391 392 393 394 395 396 397 398 399 400 401 402 403 404 405 406 407 408 409 410 411 412 413 414 415 416 417 418 419 420 421 422 423 424 425 426 427 428 429 430 431 432 433 434 435 436 437 438 439 440 441 442 443 444 445 446 447 448 449 450 451 452 453 454 455 456 457 458 459 460 461 462 463 464 465 466 467 468 469 470 471 472 473 474 475 476 477 478 479 480 481 482 483 484 485 486 487 488 489 490 491 492 493 494 495 496 497 498 499 500 501 502 503 584 572 560 549 680 667 652 638 624 610 1 4 8 13 24 31 39 48 57 65 82 92 103 114 125 136 147 158 168 186 195 204 213 </DataArray>
      </CellData>
      <PointData Scalars="phi">
        <DataArray type="Int64" IdType="1" Name="vtkOriginalPointIds" format="ascii" RangeMin="2" RangeMax="716">265 266 267 268 269 270 271 272 273 274 275 276 277 278 279 280 281 282 283 284 285 286 287 288 289 290 291 292 293 294 295 296 297 298 299 300 301 302 303 304 305 306 307 308 309 310 311 312 313 314 315 316 317 318 319 320 321 322 323 324 325 326 327 328 329 330 331 332 333 334 335 336 337 338 339 340 341 342 343 344 345 346 347 348 349 350 351 352 353 354 355 356 357 358 359 360 361 362 363 364 365 366 367 368 369 370 371 372 373 374 375 376 377 378 379 380 381 382 383 384 385 386 387 388 389 390 391 392 393 394 395 396 397 398 399 400 401 402 403 404 405 406 407 408 409 410 411 412 413 414 415 416 417 418 419 420 421 422 423 424 425 426 427 428 429 430 431 432 433 434 435 436 437 438 439 440 441 442 443 444 445 446 447 448 449 450 451 452 453 454 455 456 457 458 459 460 461 462 463 464 465 466 467 468 469 470 471 472 473 474 475 476 477 478 479 480 481 482 483 484 485 486 487 488 489 490 491 492 493 494 495 496 497 498 499 500 501 502 503 504 505 506 507 508 509 510 511 512 513 514 515 516 517 518 519 520 521 522 523 524 525 526 527 528 529 530 531 532 533 217 227 198 180 170 125 113 100 89 71 55 44 34 25 9 579 615 655 628 670 685 700 617 604 593 582 571 716 701 686 671 656 642 580 2 5 10 19 26 35 45 54 63 80 90 101 114 126 137 148 159 169 189 199 208 218 228 </DataArray>
        <DataArray type="UInt8" Name="vtkGhostType" format="ascii" RangeMin="0" RangeMax="1">0 0 0 0 0 0 0 0 0 0 0 0 0 0 0 0 0 0 0 0 0 0 0 0 0 0 0 0 0 0 0 0 0 0 0 0 0 0 0 0 0 0 0 0 0 0 0 0 0 0 0 0 0 0 0 0 0 0 0 0 0 0 0 0 0 0 0 0 0 0 0 0 0 0 0 0 0 0 0 0 0 0 0 0 0 0 0 0 0 0 0 0 0 0 0 0 0 0 0 0 0 0 0 0 0 0 0 0 0 0 0 0 0 0 0 0 0 0 0 0 0 0 0 0 0 0 0 0 0 0 0 0 0 0 0 0 0 0 0 0 0 0 0 0 0 0 0 0 0 0 0 0 0 0 0 0 0 0 0 0 0 0 0 0 0 0 0 0 0 0 0 0 0 0 0 0 0 0 0 0 0 0 0 0 0 0 0 0 0 0 0 0 0 0 0 0 0 0 0 0 0 0 0 0 0 0 0 0 0 0 0 0 0 0 0 0 0 0 0 0 0 0 0 0 0 0 0 0 0 0 0 0 0 0 0 0 0 0 0 0 0 0 0 0 0 0 0 0 0 0 0 0 0 0 0 0 0 0 0 0 0 0 0 0 0 0 0 0 0 1 1 1 1 1 1 1 1 1 1 1 1 1 1 1 1 1 1 1 1 1 1 1 1 1 1 1 1 1 1 1 1 1 1 1 1 1 1 1 1 1 1 1 1 1 1 1 1 1 1 1 1 1 1 1 1 1 </DataArray>
        <DataArray type="Float64" Name="phi" format="ascii">0.7464664140521742 0.7463295894203602 0.7468766752337546 0.7463478207308682 0.7470084684777692 0.7468674641473058 0.7475597269787775 0.7474313228436203 0.7475673519437059 0.7474219555069853 0.7485144662627075 0.7481355433289895 0.7480034445866581 0.7481344819970651 0.7479845412056995 0.7487299355178182 0.7485842774058429 0.7487009724093421 0.7485464027249459 0.7497463014098817 0.7493338391450272 0.7491647314206112 0.7492577652415748 0.7490985568682252 0.7510517518877632 0.7503843565480788 0.7503829949460411 0.7499378232435226 0.7497355234768738 0.7497957770602457 0.7496320010033879 0.7526451683156145 0.7519260466333582 0.7517314491472401 0.75102046517962 0.7505322260590187 0.7502873262364499 0.7503060574294876 0.7501378700824524 0.7545250200220273 0.753743154812623 0.7533787239860759 0.7524129136562224 0.751648513699437 0.7511073087593235 0.7508109310739829 0.750779956800816 0.750607602550555 0.7566892540557917 0.7553240778844694 0.7541154116657305 0.7530852461799704 0.7522568151773674 0.7516534256196141 0.7512974219417029 0.7512092998937564 0.7510331112717136 0.759135153656963 0.7575663957222971 0.7561281140365879 0.7548434601323294 0.7537373496946143 0.7528350976044578 0.7521612079466444 0.7517383561997002 0.7515865596978251 0.7514069546864103 0.7618591598241414 0.7601040446707377 0.7584509845742914 0.7569243071200891 0.7555508027805233 0.7543581221739022 0.7533733404801598 0.7526217576062791 0.7521259472900165 0.7519050264302332 0.751722502671307 0.7648566498304028 0.762934687653987 0.7610836571348827 0.759328965423915 0.757699408465529 0.7562252849388176 0.7549366733478758 0.7538619866966371 0.753026844619734 0.7524532431755186 0.7521589652592302 0.7519740910923789 0.7681216665790574 0.7660550450588275 0.7640252503748879 0.7620585164423032 0.7601856796013007 0.7584399649555299 0.7568549034820363 0.7554625611517546 0.75429216202815 0.753369102042331 0.7527142937956116 0.7523437564433226 0.7521571589152077 0.7694605941962399 0.7672741233005913 0.7651137734673317 0.763012311512632 0.7610061026839418 0.7591325854688488 0.7574280746861299 0.7559260411204746 0.7546558944149143 0.7536422104008005 0.752904300527613 0.7524560118081844 0.7522683620198349 0.7684950466579468 0.7661820406174649 0.7639281438384078 0.7617751408729841 0.7597642475942772 0.7579339229195959 0.7563183195530826 0.754946323851572 0.7538410635033959 0.7530197408730838 0.7524936622116102 0.75230565858371 0.7722018232798669 0.7696974394087205 0.767210945836179 0.7647888549736512 0.762477984398467 0.760322636726584 0.7583625792820518 0.756631799197699 0.7551578928897877 0.7539619075813397 0.7530584623529418 0.776232336901252 0.7735606223127308 0.7708596275050383 0.7681808495048418 0.7655774342092376 0.7631005101183715 0.7607965046333106 0.7587054761519979 0.7568603048492037 0.7552865077449559 0.7540024465399868 0.7805829938982407 0.7777728280655969 0.774879334068391 0.7719590138419755 0.7690720462795666 0.766277499845735 0.7636297182233088 0.7611760297759491 0.7589556213380738 0.7569992759319748 0.7553296608813744 0.7852476219468367 0.7823338333884595 0.7792748771998516 0.7761318676617633 0.7729726080496588 0.7698653418913409 0.7668738370341256 0.764054180602627 0.761453157920739 0.7591078346668186 0.7570459140759848 0.7902165064463004 0.7879683737026176 0.7872411407473273 0.7840501930183996 0.7807083137154132 0.7772912444171307 0.7738777159454153 0.7705427209768109 0.7673529638748141 0.7643644722603089 0.7616218997448898 0.7591589307684726 0.7924888726422878 0.7892075384078893 0.7856972175097766 0.7820413428287273 0.7783304138646921 0.7746527728586643 0.7710880707769158 0.7677036873255626 0.7645535536140554 0.761678562912062 0.7980663029135481 0.7947463184211806 0.7911067179780428 0.7872373454311701 0.7832414911419001 0.7792232944690569 0.775278278590281 0.771487908843697 0.7679176038362098 0.7646170717762061 0.8039559757225075 0.8010030662916429 0.8006614091063367 0.7969431255957843 0.7928943109597234 0.788631361085443 0.784276900047967 0.7799459917622671 0.7757377642008035 0.7717320507508139 0.7679894986683036 0.8101314290565091 0.8067717808403885 0.8069408248147641 0.8032091989195065 0.7990270857204236 0.7945227560215111 0.7898399795174604 0.7851179219557107 0.7804781009300688 0.7760186987401326 0.77181415013159 0.8165546828909102 0.8135626108846168 0.8099015112414863 0.8056488205655951 0.8009404148928039 0.7959431835285254 0.790825941749125 0.785738898798515 0.7808039607539089 0.7761132346083145 0.8204909901182128 0.8170065537639184 0.8127684108667679 0.8079102371294092 0.8026218579514338 0.797108151927467 0.7915564728888419 0.7861199290024397 0.7809137044047091 0.8154574229363879 0.8099162598311593 0.8040102007441814 0.7979750799696937 0.7920058211389374 0.786248382792446 0.8236027218991891 0.817871181070788 0.8115868701356921 0.805049092919077 0.7985099699857061 0.7921574974085454 0.8199038582098863 0.8128459866108576 0.8056926227581084 0.7986908089915092 0.8214504933404549 0.8136299850883824 0.8059106401627555 0.8224202506405476 0.8138963146337844 0.8321929367994679 0.8227509016944098 0.8326119223721654 0.7459493503917239 0.7458164405722332 0.7470110668118194 0.7479377557906488 0.7491202962889399 0.755832829130526 0.7581914441593758 0.7608144369194746 0.763696108540425 0.7668293889852394 0.770827555997101 0.7746813374999363 0.7788292415872404 0.7832623729731772 0.7954751929755102 0.8127437229447116 0.8244952590817618 0.8203862071164181 0.8284870884715797 0.8265341588256796 0.8290394304307666 0.830970436116114 0.8370299339796239 0.8323160033352163 0.8276721442373169 0.823173891779059 0.818870823680516 0.8436693071599717 0.8431239993479172 0.8415448840244607 0.8390848684998427 0.8359504773992187 0.8323552169310566 0.8090989403579021 0.803528036575346 0.7981265832067471 0.7929304964911427 0.7857774925568904 0.781316093129329 0.7771006378819575 0.7731451957499305 0.7716465937562437 0.7702055638980057 0.765600289012428 0.7625888796316337 0.7598148939132716 0.7572862439443683 0.7550094721818403 0.7529899500423728 0.7512320501796232 0.7497392926481009 0.7491259689290611 0.7473984699057821 0.7464975594177715 0.7458525331964199 0.7454649168395554 0.7453356119679204 </DataArray>
      </PointData>
    </Piece>
  </UnstructuredGrid>
</VTKFile>
