<?xml version="1.0"?>
<VTKFile type="UnstructuredGrid" version="2.2">
  <UnstructuredGrid>
    <Piece NumberOfPoints="326" NumberOfCells="283">
      <Points>
        <DataArray type="Float64" NumberOfComponents="3" format="ascii">-1.665334536937735e-18 0.3800000000000001 0 -5.551115123125782e-19 0.3999999999999999 0 0.02 0.3999999999999999 0 -5.551115123125782e-19 0.4199999999999998 0 0.02 0.4199999999999998 0 0.04 0.38 0 0.03999999999999999 0.3999999999999999 0 -5.551115123125782e-19 0.4399999999999998 0 0.02 0.4399999999999998 0 0.03999999999999999 0.4199999999999998 0 0.06 0.3800000000000001 0 0.05999999999999998 0.3999999999999999 0 -5.551115123125782e-19 0.4599999999999999 0 0.02 0.4599999999999999 0 0.03999999999999999 0.4399999999999998 0 0.05999999999999998 0.4199999999999998 0 0.08 0.3800000000000001 0 0.07999999999999999 0.3999999999999999 0 -5.551115123125782e-19 0.4799999999999998 0 0.02 0.4799999999999998 0 0.03999999999999999 0.4599999999999999 0 0.05999999999999998 0.4399999999999998 0 0.07999999999999999 0.4199999999999998 0 0.1 0.3800000000000001 0 0.09999999999999996 0.3999999999999999 0 -1.665334536937735e-18 0.4999999999999999 0 0.02 0.4999999999999999 0 0.03999999999999999 0.4799999999999998 0 0.05999999999999998 0.4599999999999999 0 0.07999999999999999 0.4399999999999998 0 0.09999999999999996 0.4199999999999998 0 0.1 0.36 0 0.12 0.3800000000000001 0 0.12 0.3999999999999999 0 0.04 0.4999999999999999 0 0.05999999999999998 0.4799999999999998 0 0.07999999999999999 0.4599999999999999 0 0.09999999999999996 0.4399999999999998 0 0.12 0.4199999999999998 0 0.12 0.36 0 0.14 0.3800000000000001 0 0.14 0.3999999999999999 0 0.06 0.4999999999999999 0 0.07999999999999999 0.4799999999999998 0 0.09999999999999996 0.4599999999999999 0 0.12 0.4399999999999998 0 0.14 0.4199999999999998 0 0.14 0.36 0 0.16 0.3800000000000001 0 0.16 0.3999999999999999 0 0.08 0.4999999999999999 0 0.09999999999999996 0.4799999999999998 0 0.12 0.4599999999999999 0 0.14 0.4399999999999998 0 0.16 0.4199999999999998 0 0.16 0.36 0 0.18 0.3800000000000001 0 0.18 0.3999999999999999 0 0.1 0.4999999999999999 0 0.12 0.4799999999999998 0 0.14 0.4599999999999999 0 0.16 0.4399999999999998 0 0.18 0.4199999999999998 0 0.18 0.36 0 0.2 0.3800000000000001 0 0.1999999999999999 0.3999999999999999 0 0.12 0.4999999999999999 0 0.14 0.4799999999999998 0 0.16 0.4599999999999999 0 0.18 0.4399999999999998 0 0.1999999999999999 0.4199999999999998 0 0.18 0.3400000000000001 0 0.2 0.36 0 0.22 0.3800000000000001 0 0.2199999999999999 0.3999999999999999 0 0.14 0.4999999999999999 0 0.16 0.4799999999999998 0 0.18 0.4599999999999999 0 0.1999999999999999 0.4399999999999998 0 0.2199999999999999 0.4199999999999998 0 0.2 0.34 0 0.22 0.36 0 0.24 0.3800000000000001 0 0.2399999999999999 0.3999999999999999 0 0.16 0.4999999999999999 0 0.18 0.4799999999999998 0 0.1999999999999999 0.4599999999999999 0 0.2199999999999999 0.4399999999999998 0 0.2399999999999999 0.4199999999999998 0 0.22 0.3400000000000001 0 0.24 0.36 0 0.2600000000000001 0.3800000000000001 0 0.26 0.3999999999999999 0 0.18 0.4999999999999999 0 0.1999999999999999 0.4799999999999998 0 0.2199999999999999 0.4599999999999999 0 0.2399999999999999 0.4399999999999998 0 0.26 0.4199999999999998 0 0.22 0.3200000000000001 0 0.24 0.3400000000000001 0 0.2600000000000001 0.36 0 0.2800000000000001 0.3800000000000001 0 0.28 0.3999999999999999 0 0.2 0.4999999999999999 0 0.2199999999999999 0.4799999999999998 0 0.2399999999999999 0.4599999999999999 0 0.26 0.4399999999999998 0 0.28 0.4199999999999998 0 0.22 0.3 0 0.24 0.3200000000000001 0 0.2600000000000001 0.3400000000000001 0 0.2800000000000001 0.36 0 0.3 0.3800000000000001 0 0.2999999999999999 0.3999999999999999 0 0.22 0.4999999999999999 0 0.2399999999999999 0.4799999999999998 0 0.26 0.4599999999999999 0 0.28 0.4399999999999998 0 0.2999999999999999 0.4199999999999998 0 0.2600000000000001 0.3200000000000001 0 0.2800000000000001 0.3400000000000001 0 0.3 0.36 0 0.3200000000000001 0.3800000000000001 0 0.32 0.3999999999999999 0 0.24 0.4999999999999999 0 0.26 0.4799999999999998 0 0.28 0.4599999999999999 0 0.2999999999999999 0.4399999999999998 0 0.32 0.4199999999999998 0 0.2600000000000001 0.3 0 0.2800000000000001 0.3200000000000001 0 0.3 0.3400000000000001 0 0.3200000000000001 0.36 0 0.3400000000000001 0.3800000000000001 0 0.34 0.3999999999999999 0 0.2600000000000001 0.4999999999999999 0 0.28 0.4799999999999998 0 0.2999999999999999 0.4599999999999999 0 0.32 0.4399999999999998 0 0.34 0.4199999999999998 0 0.3 0.3200000000000001 0 0.3200000000000001 0.3400000000000001 0 0.3400000000000001 0.36 0 0.36 0.3800000000000001 0 0.3599999999999999 0.3999999999999999 0 0.2800000000000001 0.4999999999999999 0 0.2999999999999999 0.4799999999999998 0 0.32 0.4599999999999999 0 0.34 0.4399999999999998 0 0.3599999999999999 0.4199999999999998 0 0.3 0.3 0 0.3200000000000001 0.3200000000000001 0 0.3400000000000001 0.3400000000000001 0 0.36 0.36 0 0.38 0.3800000000000001 0 0.3799999999999999 0.3999999999999999 0 0.3 0.4999999999999999 0 0.32 0.4799999999999998 0 0.34 0.4599999999999999 0 0.3599999999999999 0.4399999999999998 0 0.3799999999999999 0.4199999999999998 0 0.3200000000000001 0.3 0 0.36 0.3400000000000001 0 0.38 0.36 0 0.4 0.3800000000000001 0 0.3999999999999999 0.3999999999999999 0 0.3200000000000001 0.4999999999999999 0 0.34 0.4799999999999998 0 0.3599999999999999 0.4599999999999999 0 0.3799999999999999 0.4399999999999998 0 0.3999999999999999 0.4199999999999998 0 0.38 0.3400000000000001 0 0.4 0.36 0 0.42 0.3800000000000001 0 0.4199999999999998 0.3999999999999999 0 0.3400000000000001 0.4999999999999999 0 0.3599999999999999 0.4799999999999998 0 0.3799999999999999 0.4599999999999999 0 0.3999999999999999 0.4399999999999998 0 0.4199999999999998 0.4199999999999998 0 0.42 0.36 0 0.44 0.3800000000000001 0 0.4399999999999998 0.3999999999999999 0 0.36 0.4999999999999999 0 0.3799999999999999 0.4799999999999998 0 0.3999999999999999 0.4599999999999999 0 0.4199999999999998 0.4399999999999998 0 0.4399999999999998 0.4199999999999998 0 0.42 0.3400000000000001 0 0.44 0.36 0 0.46 0.3800000000000001 0 0.4599999999999999 0.3999999999999999 0 0.38 0.4999999999999999 0 0.3999999999999999 0.4799999999999998 0 0.4199999999999998 0.4599999999999999 0 0.4399999999999998 0.4399999999999998 0 0.4599999999999999 0.4199999999999998 0 0.44 0.3400000000000001 0 0.46 0.36 0 0.48 0.3800000000000001 0 0.4799999999999998 0.3999999999999999 0 0.4 0.4999999999999999 0 0.4199999999999998 0.4799999999999998 0 0.4399999999999998 0.4599999999999999 0 0.4599999999999999 0.4399999999999998 0 0.4799999999999998 0.4199999999999998 0 0.48 0.36 0 0.4999999999999999 0.3800000000000001 0 0.4999999999999998 0.3999999999999999 0 0.42 0.4999999999999999 0 0.4399999999999998 0.4799999999999998 0 0.4599999999999999 0.4599999999999999 0 0.4799999999999998 0.4399999999999998 0 0.4999999999999998 0.4199999999999998 0 0.4999999999999999 0.36 0 0.5200000000000001 0.3800000000000001 0 0.5199999999999999 0.3999999999999999 0 0.44 0.4999999999999999 0 0.4599999999999999 0.4799999999999998 0 0.4799999999999998 0.4599999999999999 0 0.4999999999999998 0.4399999999999998 0 0.5199999999999999 0.4199999999999998 0 0.4999999999999999 0.3400000000000001 0 0.5200000000000001 0.36 0 0.5400000000000001 0.3800000000000001 0 0.5399999999999999 0.3999999999999999 0 0.46 0.4999999999999999 0 0.4799999999999998 0.4799999999999998 0 0.4999999999999998 0.4599999999999999 0 0.5199999999999999 0.4399999999999998 0 0.5399999999999999 0.4199999999999998 0 0.5400000000000001 0.36 0 0.5600000000000002 0.3800000000000001 0 0.5599999999999999 0.3999999999999999 0 0.48 0.4999999999999999 0 0.4999999999999998 0.4799999999999998 0 0.5199999999999999 0.4599999999999999 0 0.5399999999999999 0.4399999999999998 0 0.5599999999999999 0.4199999999999998 0 0.5400000000000001 0.3400000000000001 0 0.5600000000000002 0.36 0 0.4999999999999999 0.4999999999999999 0 0.5199999999999999 0.4799999999999998 0 0.5399999999999999 0.4599999999999999 0 0.5599999999999999 0.4399999999999998 0 0.5800000000000001 0.42 0 0.5200000000000001 0.4999999999999999 0 0.5399999999999999 0.4799999999999998 0 0.5599999999999999 0.4599999999999999 0 0.5799999999999998 0.4399999999999998 0 0.5799999999999998 0.34 0 0.5400000000000001 0.4999999999999999 0 0.5599999999999999 0.4799999999999998 0 0.5799999999999998 0.4599999999999999 0 0.5600000000000002 0.4999999999999999 0 0.5799999999999998 0.4799999999999998 0 0.5999999999999999 0.4599999999999999 0 0.5800000000000001 0.4999999999999999 0 0.5999999999999999 0.4799999999999998 0 0.02 0.3800000000000001 0 0.04 0.36 0 0.06 0.36 0 0.08 0.36 0 0.08 0.3400000000000001 0 0.1 0.3400000000000001 0 0.12 0.3400000000000001 0 0.14 0.3400000000000001 0 0.16 0.3400000000000001 0 0.2 0.32 0 0.2 0.3 0 0.24 0.3 0 0.2800000000000001 0.3 0 0.3400000000000001 0.3200000000000001 0 0.34 0.2999999999999999 0 0.3599999999999999 0.32 0 0.4 0.3400000000000001 0 0.46 0.3400000000000001 0 0.48 0.3400000000000001 0 0.5200000000000001 0.3400000000000001 0 0.5799999999999998 0.3799999999999998 0 0.5799999999999998 0.3999999999999999 0 0.5600000000000002 0.3400000000000001 0 0.5799999999999998 0.3599999999999999 0 0.5999999999999999 0.4199999999999998 0 0.5999999999999999 0.4399999999999998 0 0.6000000000000001 0.4999999999999999 0 -5.551115123125782e-19 0.3599999999999999 0 0.02 0.3599999999999999 0 0.03999999999999999 0.34 0 0.05999999999999998 0.34 0 0.07999999999999999 0.32 0 0.09999999999999996 0.32 0 0.12 0.32 0 0.14 0.32 0 0.16 0.32 0 0.18 0.32 0 0.18 0.2999999999999999 0 0.1999999999999999 0.28 0 0.2199999999999999 0.28 0 0.2399999999999999 0.28 0 0.26 0.28 0 0.28 0.28 0 0.2999999999999999 0.28 0 0.32 0.28 0 0.34 0.28 0 0.36 0.3 0 0.3799999999999999 0.32 0 0.3999999999999999 0.32 0 0.4199999999999998 0.32 0 0.4399999999999998 0.32 0 0.4599999999999999 0.32 0 0.4799999999999998 0.32 0 0.4999999999999998 0.32 0 0.5199999999999999 0.32 0 0.5399999999999999 0.32 0 0.5599999999999999 0.32 0 0.58 0.32 0 0.6 0.34 0 0.6 0.36 0 0.6 0.38 0 0.6 0.4 0 0.62 0.42 0 0.62 0.44 0 0.62 0.46 0 0.62 0.48 0 0.62 0.5 0 </DataArray>
      </Points>
      <Cells>
        <DataArray type="Int32" Name="connectivity" format="ascii">0 1 2 259 1 3 4 2 259 2 6 5 3 7 8 4 2 4 9 6 5 6 11 10 7 12 13 8 4 8 14 9 6 9 15 11 260 5 10 261 10 11 17 16 12 18 19 13 8 13 20 14 9 14 21 15 11 15 22 17 261 10 16 262 16 17 24 23 18 25 26 19 13 19 27 20 14 20 28 21 15 21 29 22 17 22 30 24 262 16 23 31 23 24 33 32 19 26 34 27 20 27 35 28 21 28 36 29 22 29 37 30 24 30 38 33 263 262 31 264 31 23 32 39 32 33 41 40 27 34 42 35 28 35 43 36 29 36 44 37 30 37 45 38 33 38 46 41 264 31 39 265 39 32 40 47 40 41 49 48 35 42 50 43 36 43 51 44 37 44 52 45 38 45 53 46 41 46 54 49 265 39 47 266 47 40 48 55 48 49 57 56 43 50 58 51 44 51 59 52 45 52 60 53 46 53 61 54 49 54 62 57 266 47 55 267 55 48 56 63 56 57 65 64 51 58 66 59 52 59 67 60 53 60 68 61 54 61 69 62 57 62 70 65 267 55 63 71 63 56 64 72 64 65 74 73 59 66 75 67 60 67 76 68 61 68 77 69 62 69 78 70 65 70 79 74 71 63 72 80 72 64 73 81 73 74 83 82 67 75 84 76 68 76 85 77 69 77 86 78 70 78 87 79 74 79 88 83 80 72 81 89 81 73 82 90 82 83 92 91 76 84 93 85 77 85 94 86 78 86 95 87 79 87 96 88 83 88 97 92 268 80 89 98 89 81 90 99 90 82 91 100 91 92 102 101 85 93 103 94 86 94 104 95 87 95 105 96 88 96 106 97 92 97 107 102 269 268 98 108 98 89 99 109 99 90 100 110 100 91 101 111 101 102 113 112 94 103 114 104 95 104 115 105 96 105 116 106 97 106 117 107 102 107 118 113 108 98 109 270 109 99 110 119 110 100 111 120 111 101 112 121 112 113 123 122 104 114 124 115 105 115 125 116 106 116 126 117 107 117 127 118 113 118 128 123 270 109 119 129 119 110 120 130 120 111 121 131 121 112 122 132 122 123 134 133 115 124 135 125 116 125 136 126 117 126 137 127 118 127 138 128 123 128 139 134 129 119 130 271 130 120 131 140 131 121 132 141 132 122 133 142 133 134 144 143 125 135 145 136 126 136 146 137 127 137 147 138 128 138 148 139 134 139 149 144 271 130 140 150 140 131 141 151 141 132 142 152 142 133 143 153 143 144 155 154 136 145 156 146 137 146 157 147 138 147 158 148 139 148 159 149 144 149 160 155 150 140 151 161 151 141 152 272 152 142 153 162 153 143 154 163 154 155 165 164 146 156 166 157 147 157 167 158 148 158 168 159 149 159 169 160 155 160 170 165 161 151 272 273 272 152 162 274 162 153 163 171 163 154 164 172 164 165 174 173 157 166 175 167 158 167 176 168 159 168 177 169 160 169 178 170 165 170 179 174 171 163 172 275 172 164 173 180 173 174 182 181 167 175 183 176 168 176 184 177 169 177 185 178 170 178 186 179 174 179 187 182 275 172 180 188 180 173 181 189 181 182 191 190 176 183 192 184 177 184 193 185 178 185 194 186 179 186 195 187 182 187 196 191 188 180 189 197 189 181 190 198 190 191 200 199 184 192 201 193 185 193 202 194 186 194 203 195 187 195 204 196 191 196 205 200 197 189 198 276 198 190 199 206 199 200 208 207 193 201 209 202 194 202 210 203 195 203 211 204 196 204 212 205 200 205 213 208 276 198 206 277 206 199 207 214 207 208 216 215 202 209 217 210 203 210 218 211 204 211 219 212 205 212 220 213 208 213 221 216 277 206 214 222 214 207 215 223 215 216 225 224 210 217 226 218 211 218 227 219 212 219 228 220 213 220 229 221 216 221 230 225 222 214 223 278 223 215 224 231 224 225 233 232 218 226 234 227 219 227 235 228 220 228 236 229 221 229 237 230 225 230 238 233 278 223 231 239 231 224 232 240 232 233 280 279 227 234 241 235 228 235 242 236 229 236 243 237 230 237 244 238 233 238 245 280 239 231 240 281 240 232 279 282 235 241 246 242 236 242 247 243 237 243 248 244 238 244 249 245 281 240 282 250 242 246 251 247 243 247 252 248 244 248 253 249 245 249 284 283 247 251 254 252 248 252 255 253 249 253 256 284 252 254 257 255 253 255 258 256 255 257 285 258 286 0 259 287 287 259 5 260 288 260 261 289 289 261 262 263 290 263 264 291 291 264 265 292 292 265 266 293 293 266 267 294 294 267 71 295 296 295 268 269 295 71 80 268 297 269 108 298 298 108 270 299 299 270 129 300 300 129 271 301 301 271 150 302 302 150 161 303 303 161 273 304 273 272 274 305 274 162 171 306 306 171 275 307 307 275 188 308 308 188 197 309 309 197 276 310 310 276 277 311 311 277 222 312 312 222 278 313 313 278 239 314 314 239 281 315 315 281 250 316 250 282 318 317 282 279 319 318 279 280 320 319 280 245 283 320 283 284 322 321 284 256 323 322 256 258 324 323 258 285 325 324 </DataArray>
        <DataArray type="Int32" Name="offsets" format="ascii">4 8 12 16 20 24 28 32 36 40 44 48 52 56 60 64 68 72 76 80 84 88 92 96 100 104 108 112 116 120 124 128 132 136 140 144 148 152 156 160 164 168 172 176 180 184 188 192 196 200 204 208 212 216 220 224 228 232 236 240 244 248 252 256 260 264 268 272 276 280 284 288 292 296 300 304 308 312 316 320 324 328 332 336 340 344 348 352 356 360 364 368 372 376 380 384 388 392 396 400 404 408 412 416 420 424 428 432 436 440 444 448 452 456 460 464 468 472 476 480 484 488 492 496 500 504 508 512 516 520 524 528 532 536 540 544 548 552 556 560 564 568 572 576 580 584 588 592 596 600 604 608 612 616 620 624 628 632 636 640 644 648 652 656 660 664 668 672 676 680 684 688 692 696 700 704 708 712 716 720 724 728 732 736 740 744 748 752 756 760 764 768 772 776 780 784 788 792 796 800 804 808 812 816 820 824 828 832 836 840 844 848 852 856 860 864 868 872 876 880 884 888 892 896 900 904 908 912 916 920 924 928 932 936 940 944 948 952 956 960 964 968 972 976 980 984 988 992 996 1000 1004 1008 1012 1016 1020 1024 1028 1032 1036 1040 1044 1048 1052 1056 1060 1064 1068 1072 1076 1080 1084 1088 1092 1096 1100 1104 1108 1112 1116 1120 1124 1128 1132 </DataArray>
        <DataArray type="Int8" Name="types" format="ascii">70 70 70 70 70 70 70 70 70 70 70 70 70 70 70 70 70 70 70 70 70 70 70 70 70 70 70 70 70 70 70 70 70 70 70 70 70 70 70 70 70 70 70 70 70 70 70 70 70 70 70 70 70 70 70 70 70 70 70 70 70 70 70 70 70 70 70 70 70 70 70 70 70 70 70 70 70 70 70 70 70 70 70 70 70 70 70 70 70 70 70 70 70 70 70 70 70 70 70 70 70 70 70 70 70 70 70 70 70 70 70 70 70 70 70 70 70 70 70 70 70 70 70 70 70 70 70 70 70 70 70 70 70 70 70 70 70 70 70 70 70 70 70 70 70 70 70 70 70 70 70 70 70 70 70 70 70 70 70 70 70 70 70 70 70 70 70 70 70 70 70 70 70 70 70 70 70 70 70 70 70 70 70 70 70 70 70 70 70 70 70 70 70 70 70 70 70 70 70 70 70 70 70 70 70 70 70 70 70 70 70 70 70 70 70 70 70 70 70 70 70 70 70 70 70 70 70 70 70 70 70 70 70 70 70 70 70 70 70 70 70 70 70 70 70 70 70 70 70 70 70 70 70 70 70 70 70 70 70 70 70 70 70 70 70 70 70 70 70 70 70 70 70 70 70 70 70 70 70 70 70 70 70 </DataArray>
      </Cells>
      <CellData>
        <DataArray type="UInt8" Name="vtkGhostType" format="ascii" RangeMin="0" RangeMax="1">0 0 0 0 0 0 0 0 0 0 0 0 0 0 0 0 0 0 0 0 0 0 0 0 0 0 0 0 0 0 0 0 0 0 0 0 0 0 0 0 0 0 0 0 0 0 0 0 0 0 0 0 0 0 0 0 0 0 0 0 0 0 0 0 0 0 0 0 0 0 0 0 0 0 0 0 0 0 0 0 0 0 0 0 0 0 0 0 0 0 0 0 0 0 0 0 0 0 0 0 0 0 0 0 0 0 0 0 0 0 0 0 0 0 0 0 0 0 0 0 0 0 0 0 0 0 0 0 0 0 0 0 0 0 0 0 0 0 0 0 0 0 0 0 0 0 0 0 0 0 0 0 0 0 0 0 0 0 0 0 0 0 0 0 0 0 0 0 0 0 0 0 0 0 0 0 0 0 0 0 0 0 0 0 0 0 0 0 0 0 0 0 0 0 0 0 0 0 0 0 0 0 0 0 0 0 0 0 0 0 0 0 0 0 0 0 0 0 0 0 0 0 0 0 0 0 0 0 0 0 0 0 0 0 0 0 0 0 0 0 0 0 0 0 0 1 1 1 1 1 1 1 1 1 1 1 1 1 1 1 1 1 1 1 1 1 1 1 1 1 1 1 1 1 1 1 1 1 1 1 1 1 1 </DataArray>
        <DataArray type="Int64" IdType="1" Name="vtkOriginalCellIds" format="ascii" RangeMin="25" RangeMax="1249">753 754 755 756 757 758 759 760 761 762 763 764 765 766 767 768 769 770 771 772 773 774 775 776 777 778 779 780 781 782 783 784 785 786 787 788 789 790 791 792 793 794 795 796 797 798 799 800 801 802 803 804 805 806 807 808 809 810 811 812 813 814 815 816 817 818 819 820 821 822 823 824 825 826 827 828 829 830 831 832 833 834 835 836 837 838 839 840 841 842 843 844 845 846 847 848 849 850 851 852 853 854 855 856 857 858 859 860 861 862 863 864 865 866 867 868 869 870 871 872 873 874 875 876 877 878 879 880 881 882 883 884 885 886 887 888 889 890 891 892 893 894 895 896 897 898 899 900 901 902 903 904 905 906 907 908 909 910 911 912 913 914 915 916 917 918 919 920 921 922 923 924 925 926 927 928 929 930 931 932 933 934 935 936 937 938 939 940 941 942 943 944 945 946 947 948 949 950 951 952 953 954 955 956 957 958 959 960 961 962 963 964 965 966 967 968 969 970 971 972 973 974 975 976 977 978 979 980 981 982 983 984 985 986 987 988 989 990 991 992 993 994 995 996 997 1156 1170 1171 1184 1185 1196 1206 1215 1223 1224 1231 1225 1232 1237 1241 1244 1247 1249 586 562 551 541 532 525 519 514 510 507 505 504 25 32 40 49 66 74 83 93 </DataArray>
      </CellData>
      <PointData Scalars="phi">
        <DataArray type="Int64" IdType="1" Name="vtkOriginalPointIds" format="ascii" RangeMin="20" RangeMax="1325">795 796 797 798 799 800 801 802 803 804 805 806 807 808 809 810 811 812 813 814 815 816 817 818 819 820 821 822 823 824 825 826 827 828 829 830 831 832 833 834 835 836 837 838 839 840 841 842 843 844 845 846 847 848 849 850 851 852 853 854 855 856 857 858 859 860 861 862 863 864 865 866 867 868 869 870 871 872 873 874 875 876 877 878 879 880 881 882 883 884 885 886 887 888 889 890 891 892 893 894 895 896 897 898 899 900 901 902 903 904 905 906 907 908 909 910 911 912 913 914 915 916 917 918 919 920 921 922 923 924 925 926 927 928 929 930 931 932 933 934 935 936 937 938 939 940 941 942 943 944 945 946 947 948 949 950 951 952 953 954 955 956 957 958 959 960 961 962 963 964 965 966 967 968 969 970 971 972 973 974 975 976 977 978 979 980 981 982 983 984 985 986 987 988 989 990 991 992 993 994 995 996 997 998 999 1000 1001 1002 1003 1004 1005 1006 1007 1008 1009 1010 1011 1012 1013 1014 1015 1016 1017 1018 1019 1020 1021 1022 1023 1024 1025 1026 1027 1028 1029 1030 1031 1032 1033 1034 1035 1036 1037 1038 1039 1040 1041 1042 1043 1044 1045 1046 1047 1048 1049 1050 1051 1052 1053 1243 1244 1258 1270 1259 1271 1282 1291 1299 1307 1301 1313 1320 631 1325 605 584 557 551 541 36 46 535 27 56 72 102 1229 1230 1231 1245 1246 1260 1272 1283 1292 1300 1293 1294 1302 1308 1314 1317 1321 1323 1324 618 594 583 572 564 556 550 545 540 537 534 536 20 28 37 47 64 73 81 91 103 </DataArray>
        <DataArray type="UInt8" Name="vtkGhostType" format="ascii" RangeMin="0" RangeMax="1">0 0 0 0 0 0 0 0 0 0 0 0 0 0 0 0 0 0 0 0 0 0 0 0 0 0 0 0 0 0 0 0 0 0 0 0 0 0 0 0 0 0 0 0 0 0 0 0 0 0 0 0 0 0 0 0 0 0 0 0 0 0 0 0 0 0 0 0 0 0 0 0 0 0 0 0 0 0 0 0 0 0 0 0 0 0 0 0 0 0 0 0 0 0 0 0 0 0 0 0 0 0 0 0 0 0 0 0 0 0 0 0 0 0 0 0 0 0 0 0 0 0 0 0 0 0 0 0 0 0 0 0 0 0 0 0 0 0 0 0 0 0 0 0 0 0 0 0 0 0 0 0 0 0 0 0 0 0 0 0 0 0 0 0 0 0 0 0 0 0 0 0 0 0 0 0 0 0 0 0 0 0 0 0 0 0 0 0 0 0 0 0 0 0 0 0 0 0 0 0 0 0 0 0 0 0 0 0 0 0 0 0 0 0 0 0 0 0 0 0 0 0 0 0 0 0 0 0 0 0 0 0 0 0 0 0 0 0 0 0 0 0 0 0 0 0 0 0 0 0 0 0 0 0 0 0 0 0 0 1 1 1 1 1 1 1 1 1 1 1 1 1 1 1 1 1 1 1 1 1 1 1 1 1 1 1 1 1 1 1 1 1 1 1 1 1 1 1 1 1 1 1 1 1 1 1 1 1 1 1 1 1 1 1 1 1 1 1 1 1 1 1 1 1 1 1 </DataArray>
        <DataArray type="Float64" Name="phi" format="ascii">0.8563785695780549 0.8536594696802328 0.8535827288325026 0.851435255319244 0.8513582043141608 0.8560731578720228 0.8533523533279493 0.8497056749687513 0.8496284110154523 0.8511269251740903 0.8556907036574888 0.8529678896776998 0.8484704767372941 0.8483930759100615 0.8493965141471468 0.8507410452328712 0.8551539991275559 0.8524286002092984 0.8477294504018368 0.8476519735634618 0.84816078361602 0.8490096752441286 0.8501999625232959 0.8544618182545736 0.8517334908276202 0.8474824576665232 0.8474049565118705 0.8474194623937358 0.8477733364393405 0.8484673988727206 0.8495028748870811 0.8576888833297875 0.8536126475097053 0.8508813509501156 0.847172375452066 0.8470316810093063 0.8472303154798605 0.8477690332071507 0.8486488214880403 0.8568441143850113 0.8526047362946813 0.849870806623359 0.8467844877980761 0.8464882565796847 0.8465311767267369 0.8469138124315018 0.8476367374107924 0.8558403828792731 0.8514361621797434 0.8487003880130296 0.8462409360983226 0.8457887099205338 0.845675293913847 0.8459009120496764 0.8464655221044297 0.8546752317126328 0.850104912909858 0.8473686125462327 0.8455412627966048 0.844932498548736 0.8446620141035108 0.8447295175300715 0.8451341224061744 0.8533460179752356 0.8486089872453306 0.845874084929634 0.8446849533416831 0.8439190723375073 0.8434907261912981 0.8433989066111989 0.8436416307195286 0.8570953075853525 0.8518500125918126 0.8469465165972331 0.8442156150156176 0.8436714918508063 0.842747941825912 0.842160942375644 0.841908545368012 0.8419873985868145 0.8556013659076043 0.8501845240861426 0.8451159090131132 0.8423923539817004 0.8425004293357837 0.8414187590612789 0.8406723923706966 0.8402581977601634 0.8401711653498857 0.8539347566036101 0.848347049511446 0.8431160162641379 0.8404039484667674 0.8411714643157856 0.8399314105676911 0.8390251297415025 0.8384480478314688 0.8381932008049428 0.8582029550435565 0.8520918846814401 0.8463354549095966 0.840946323485302 0.8382507111259961 0.8396845353495727 0.8382861216259212 0.8372196491963306 0.8364788329930997 0.8360544597144509 0.8629953734026232 0.8563573584705552 0.8500694182893183 0.8441481863226697 0.8386071589592505 0.8359338045110299 0.8380399246099196 0.8364835705148679 0.8352570129819642 0.8343519859074358 0.8337567447568722 0.8543261389892772 0.8478645219959888 0.8417845102291188 0.8360999192098498 0.8334554332933301 0.8362383710913165 0.834525010708138 0.8331389837108498 0.8320697814259044 0.8313028730311937 0.8591148756176801 0.8521049027733056 0.8454751318469479 0.839244779226143 0.8334273016872022 0.8308190377428423 0.8342811913971016 0.832412398264078 0.8308681600422205 0.8296354838858038 0.8286968396989232 0.8496899379060413 0.8429002695942424 0.8365307148787938 0.8305935342254634 0.8280294792581669 0.8321704053177055 0.8301485208344285 0.8284481107060215 0.8270534889377634 0.8259439709091773 0.8544415443009513 0.8470785845787847 0.8401403883405436 0.8336456951643048 0.8276045875387257 0.8250932069149507 0.8299088626296017 0.827737123907888 0.8258835014876844 0.8243294530920157 0.8230510570298253 0.8517939967811005 0.8371977354344077 0.8305950293784232 0.8244683548219985 0.8220183928167049 0.8275003667763703 0.8251830291821121 0.823180209094601 0.8214704034985311 0.8200264566426696 0.8340767114364526 0.827386199518754 0.821194781637124 0.8188150238661697 0.8249497904182348 0.8224922394177968 0.8203454154247161 0.8184848202800449 0.8168801619835823 0.8240290449660821 0.8177959302172708 0.8154949387252918 0.8222631773466925 0.819672023873812 0.8173876757735903 0.8153826841633198 0.8136238176861098 0.8273298186349939 0.8205358676753999 0.8142859654326674 0.8120718013388933 0.8194478250518927 0.8167309785469042 0.8143169550439342 0.8121754832935596 0.8102706868707807 0.8237261106330298 0.8169214387100801 0.8106810548845951 0.8085610063704488 0.8165123423883152 0.8136790560126976 0.8111446271099431 0.8088761749756407 0.8068355617098338 0.8132028939078326 0.8069991824649085 0.8049795168841122 0.8134666773703377 0.8105275607146053 0.8078834341213839 0.8054991005645273 0.8033346193209746 0.809399516145948 0.8032598823657707 0.8013456400184331 0.8103221111652645 0.8072891070473587 0.8045474046166582 0.8020598546195478 0.7997852277975845 0.8121878441321168 0.8055324127672483 0.7994839078283814 0.7976787515090352 0.807091215807894 0.8039775394449451 0.8011517316835575 0.7985751124503956 0.7962057108825333 0.8016241074608386 0.7956928547431238 0.7939989840073677 0.8037877749525425 0.8006078157646196 0.7977126148374819 0.795062422979692 0.7926150827638445 0.8041028603916344 0.7976980744225914 0.8004266689685861 0.7971958573728191 0.7942470715289111 0.7915399761014774 0.7890327663377628 0.7970237276991758 0.7937583712801203 0.7907727260054044 0.7880263551688391 0.7959349797787207 0.7935955560489155 0.7903126512466332 0.7873075844481158 0.7901593390647164 0.7868763658316016 0.7838698057678165 0.7867326341811098 0.7834673417993848 0.856302262951945 0.8592896660685332 0.8589099780372318 0.8583768822349277 0.8620979374688136 0.8614157275816747 0.8605772353467898 0.8595797653660692 0.8584202471665278 0.859867692574246 0.8646539584265084 0.8611511624944113 0.8568802473335496 0.844269657569901 0.8489343124298032 0.8412639060340501 0.8307841974561675 0.8199885599421701 0.816135498146377 0.8081687047231179 0.7919087636614004 0.7903268966407093 0.8000161755234535 0.7937782475012899 0.7854783088438385 0.7845402857510072 0.7833331587306178 0.8595927527773586 0.8595170366929389 0.8630021072027189 0.8626261313452442 0.8663177339998527 0.8656433196338006 0.8648134820329849 0.8638249690883143 0.8626740247982441 0.8613564508968777 0.8661332827519252 0.8699652917049385 0.8683186277131578 0.8664816042848178 0.8644458167331376 0.862202780466322 0.8597443067673607 0.8570629960654087 0.8541528556457495 0.8458612585845109 0.8380644850213822 0.8346774023633026 0.8311118959346963 0.8273806926077293 0.8235001039267235 0.819489925895016 0.8153731304796347 0.8111753614416952 0.8069242721063848 0.8026487624682977 0.7983781834687748 0.7918854672958299 0.7898885375712204 0.7881537244007721 0.7866831438658469 0.7819711080265958 0.7811003913489384 0.7804774771645676 0.78010335110049 0.7799785806531252 </DataArray>
      </PointData>
    </Piece>
  </UnstructuredGrid>
</VTKFile>
