<?xml version="1.0"?>
<VTKFile type="UnstructuredGrid" version="2.2">
  <UnstructuredGrid>
    <Piece NumberOfPoints="327" NumberOfCells="288">
      <Points>
        <DataArray type="Float64" NumberOfComponents="3" format="ascii">0.58 0.24 0 0.5999999999999999 0.2399999999999999 0 0.6199999999999999 0.2199999999999999 0 0.5999999999999999 0.26 0 0.6199999999999999 0.2399999999999999 0 0.6399999999999999 0.2199999999999999 0 0.5999999999999999 0.28 0 0.6199999999999999 0.26 0 0.6399999999999999 0.2399999999999999 0 0.6600000000000001 0.2 0 0.6599999999999999 0.2199999999999999 0 0.5999999999999999 0.2999999999999999 0 0.6199999999999999 0.28 0 0.6399999999999999 0.26 0 0.6599999999999999 0.2399999999999999 0 0.5999999999999999 0.32 0 0.6199999999999999 0.2999999999999999 0 0.6399999999999999 0.28 0 0.6599999999999999 0.26 0 0.6799999999999999 0.2399999999999999 0 0.5999999999999999 0.34 0 0.6199999999999999 0.32 0 0.6399999999999999 0.2999999999999999 0 0.6599999999999999 0.28 0 0.6799999999999999 0.26 0 0.7000000000000002 0.22 0 0.7 0.2399999999999999 0 0.58 0.36 0 0.5999999999999999 0.3599999999999999 0 0.6199999999999999 0.34 0 0.6399999999999999 0.32 0 0.6599999999999999 0.2999999999999999 0 0.6799999999999999 0.28 0 0.7 0.26 0 0.7200000000000001 0.22 0 0.7199999999999999 0.2399999999999999 0 0.58 0.38 0 0.5999999999999999 0.3799999999999998 0 0.6199999999999999 0.3599999999999999 0 0.6399999999999999 0.34 0 0.6599999999999999 0.32 0 0.6799999999999999 0.2999999999999999 0 0.7 0.28 0 0.7199999999999999 0.26 0 0.7400000000000001 0.22 0 0.7399999999999999 0.2399999999999999 0 0.58 0.4 0 0.5999999999999999 0.3999999999999999 0 0.6199999999999999 0.3799999999999998 0 0.6399999999999999 0.3599999999999999 0 0.6599999999999999 0.34 0 0.6799999999999999 0.32 0 0.7 0.2999999999999999 0 0.7199999999999999 0.28 0 0.7399999999999999 0.26 0 0.7599999999999998 0.2199999999999999 0 0.6 0.42 0 0.6199999999999999 0.3999999999999999 0 0.6399999999999999 0.3799999999999998 0 0.6599999999999999 0.3599999999999999 0 0.6799999999999999 0.34 0 0.7 0.32 0 0.7199999999999999 0.2999999999999999 0 0.7399999999999999 0.28 0 0.6199999999999999 0.4199999999999998 0 0.6399999999999999 0.3999999999999999 0 0.6599999999999999 0.3799999999999998 0 0.6799999999999999 0.3599999999999999 0 0.7 0.34 0 0.7199999999999999 0.32 0 0.7399999999999999 0.2999999999999999 0 0.7600000000000001 0.2800000000000001 0 0.6 0.44 0 0.6199999999999999 0.4399999999999998 0 0.6399999999999999 0.4199999999999998 0 0.6599999999999999 0.3999999999999999 0 0.6799999999999999 0.3799999999999998 0 0.7 0.3599999999999999 0 0.7199999999999999 0.34 0 0.7399999999999999 0.32 0 0.7599999999999998 0.2999999999999999 0 0.6199999999999999 0.4599999999999999 0 0.6399999999999999 0.4399999999999998 0 0.6599999999999999 0.4199999999999998 0 0.6799999999999999 0.3999999999999999 0 0.7 0.3799999999999998 0 0.7199999999999999 0.3599999999999999 0 0.7399999999999999 0.34 0 0.7599999999999998 0.32 0 0.78 0.2800000000000001 0 0.7799999999999998 0.2999999999999999 0 0.6199999999999999 0.4799999999999998 0 0.6399999999999999 0.4599999999999999 0 0.6599999999999999 0.4399999999999998 0 0.6799999999999999 0.4199999999999998 0 0.7 0.3999999999999999 0 0.7199999999999999 0.3799999999999998 0 0.7399999999999999 0.3599999999999999 0 0.7599999999999998 0.34 0 0.7799999999999998 0.32 0 0.8 0.2800000000000001 0 0.7999999999999997 0.2999999999999999 0 0.6 0.5 0 0.6200000000000001 0.4999999999999999 0 0.6399999999999999 0.4799999999999998 0 0.6599999999999999 0.4599999999999999 0 0.6799999999999999 0.4399999999999998 0 0.7 0.4199999999999998 0 0.7199999999999999 0.3999999999999999 0 0.7399999999999999 0.3799999999999998 0 0.7599999999999998 0.3599999999999999 0 0.7799999999999998 0.34 0 0.7999999999999997 0.32 0 0.8200000000000001 0.2800000000000001 0 0.8199999999999997 0.2999999999999999 0 0.6400000000000001 0.4999999999999999 0 0.6599999999999999 0.4799999999999998 0 0.6799999999999999 0.4599999999999999 0 0.7 0.4399999999999998 0 0.7199999999999999 0.4199999999999998 0 0.7399999999999999 0.3999999999999999 0 0.7599999999999998 0.3799999999999998 0 0.7799999999999998 0.3599999999999999 0 0.7999999999999997 0.34 0 0.8199999999999997 0.32 0 0.84 0.2800000000000001 0 0.8399999999999996 0.2999999999999999 0 0.6600000000000001 0.4999999999999999 0 0.6799999999999999 0.4799999999999998 0 0.7 0.4599999999999999 0 0.7199999999999999 0.4399999999999998 0 0.7399999999999999 0.4199999999999998 0 0.7599999999999998 0.3999999999999999 0 0.7799999999999998 0.3799999999999998 0 0.7999999999999997 0.3599999999999999 0 0.8199999999999997 0.34 0 0.8399999999999996 0.32 0 0.8599999999999997 0.2999999999999999 0 0.6800000000000002 0.4999999999999999 0 0.7 0.4799999999999998 0 0.7199999999999999 0.4599999999999999 0 0.7399999999999999 0.4399999999999998 0 0.7599999999999998 0.4199999999999998 0 0.7799999999999998 0.3999999999999999 0 0.7999999999999997 0.3799999999999998 0 0.8199999999999997 0.3599999999999999 0 0.8399999999999996 0.34 0 0.8599999999999997 0.32 0 0.8799999999999997 0.2999999999999999 0 0.7000000000000002 0.4999999999999999 0 0.7199999999999999 0.4799999999999998 0 0.7399999999999999 0.4599999999999999 0 0.7599999999999998 0.4399999999999998 0 0.7799999999999998 0.4199999999999998 0 0.7999999999999997 0.3999999999999999 0 0.8199999999999997 0.3799999999999998 0 0.8399999999999996 0.3599999999999999 0 0.8599999999999997 0.34 0 0.8799999999999997 0.32 0 0.8999999999999997 0.2999999999999999 0 0.7200000000000001 0.4999999999999999 0 0.7399999999999999 0.4799999999999998 0 0.7599999999999998 0.4599999999999999 0 0.7799999999999998 0.4399999999999998 0 0.7999999999999997 0.4199999999999998 0 0.8199999999999997 0.3999999999999999 0 0.8399999999999996 0.3799999999999998 0 0.8599999999999997 0.3599999999999999 0 0.8799999999999997 0.34 0 0.8999999999999997 0.32 0 0.9199999999999997 0.28 0 0.7400000000000001 0.4999999999999999 0 0.7599999999999998 0.4799999999999998 0 0.7799999999999998 0.4599999999999999 0 0.7999999999999997 0.4399999999999998 0 0.8199999999999997 0.4199999999999998 0 0.8399999999999996 0.3999999999999999 0 0.8599999999999997 0.3799999999999998 0 0.8799999999999997 0.3599999999999999 0 0.8999999999999997 0.34 0 0.92 0.3200000000000001 0 0.7600000000000001 0.4999999999999999 0 0.7799999999999998 0.4799999999999998 0 0.7999999999999997 0.4599999999999999 0 0.8199999999999997 0.4399999999999998 0 0.8399999999999996 0.4199999999999998 0 0.8599999999999997 0.3999999999999999 0 0.8799999999999997 0.3799999999999998 0 0.8999999999999997 0.3599999999999999 0 0.9199999999999997 0.34 0 0.78 0.4999999999999999 0 0.7999999999999997 0.4799999999999998 0 0.8199999999999997 0.4599999999999999 0 0.8399999999999996 0.4399999999999998 0 0.8599999999999997 0.4199999999999998 0 0.8799999999999997 0.3999999999999999 0 0.8999999999999997 0.3799999999999998 0 0.9199999999999997 0.3599999999999999 0 0.9400000000000001 0.3200000000000001 0 0.9399999999999997 0.34 0 0.8 0.4999999999999999 0 0.8199999999999997 0.4799999999999998 0 0.8399999999999996 0.4599999999999999 0 0.8599999999999997 0.4399999999999998 0 0.8799999999999997 0.4199999999999998 0 0.8999999999999997 0.3999999999999999 0 0.9199999999999997 0.3799999999999998 0 0.9399999999999997 0.3599999999999999 0 0.9599999999999996 0.34 0 0.8200000000000001 0.4999999999999999 0 0.8399999999999996 0.4799999999999998 0 0.8599999999999997 0.4599999999999999 0 0.8799999999999997 0.4399999999999998 0 0.8999999999999997 0.4199999999999998 0 0.9199999999999997 0.3999999999999999 0 0.9399999999999997 0.3799999999999998 0 0.9599999999999996 0.3599999999999999 0 0.98 0.3200000000000001 0 0.9799999999999996 0.34 0 0.84 0.4999999999999999 0 0.8599999999999997 0.4799999999999998 0 0.8799999999999997 0.4599999999999999 0 0.8999999999999997 0.4399999999999998 0 0.9199999999999997 0.4199999999999998 0 0.9399999999999997 0.3999999999999999 0 0.9599999999999996 0.3799999999999998 0 0.9799999999999996 0.3599999999999999 0 1 0.32 0 1 0.34 0 0.86 0.4999999999999999 0 0.8799999999999997 0.4799999999999998 0 0.8999999999999997 0.4599999999999999 0 0.9199999999999997 0.4399999999999998 0 0.9399999999999997 0.4199999999999998 0 0.9599999999999996 0.3999999999999999 0 0.9799999999999996 0.3799999999999998 0 1 0.36 0 0.88 0.4999999999999999 0 0.8999999999999997 0.4799999999999998 0 0.9199999999999997 0.4599999999999999 0 0.9399999999999997 0.4399999999999998 0 0.9599999999999996 0.4199999999999998 0 0.9799999999999996 0.3999999999999999 0 1 0.38 0 0.9 0.4999999999999999 0 0.9199999999999997 0.4799999999999998 0 0.9399999999999997 0.4599999999999999 0 0.9599999999999996 0.4399999999999998 0 0.9799999999999996 0.4199999999999998 0 1 0.4 0 0.92 0.4999999999999999 0 0.9399999999999997 0.4799999999999998 0 0.9599999999999996 0.4599999999999999 0 0.9799999999999996 0.4399999999999998 0 1 0.42 0 0.9400000000000001 0.4999999999999999 0 0.9599999999999996 0.4799999999999998 0 0.9799999999999996 0.4599999999999999 0 1 0.44 0 0.96 0.4999999999999999 0 0.9799999999999996 0.4799999999999998 0 1 0.46 0 0.98 0.4999999999999999 0 1 0.48 0 1 0.5 0 0.5800000000000001 0.22 0 0.6 0.22 0 0.6000000000000001 0.2 0 0.6200000000000001 0.2 0 0.58 0.2600000000000001 0 0.6400000000000001 0.2 0 0.58 0.28 0 0.58 0.3 0 0.6799999999999999 0.1999999999999999 0 0.6800000000000002 0.22 0 0.58 0.32 0 0.58 0.34 0 0.7599999999999998 0.2399999999999999 0 0.5799999999999998 0.4199999999999998 0 0.7599999999999998 0.26 0 0.6 0.46 0 0.6 0.48 0 0.86 0.2800000000000001 0 0.88 0.2800000000000001 0 0.9 0.2800000000000001 0 0.9199999999999997 0.2999999999999999 0 0.96 0.3200000000000001 0 0.5599999999999999 0.2199999999999999 0 0.5599999999999999 0.2399999999999999 0 0.5599999999999999 0.26 0 0.5599999999999999 0.28 0 0.5599999999999999 0.2999999999999999 0 0.5599999999999999 0.32 0 0.5599999999999999 0.34 0 0.5599999999999999 0.3599999999999999 0 0.5599999999999999 0.3799999999999998 0 0.5599999999999999 0.3999999999999999 0 0.5600000000000002 0.42 0 0.5799999999999998 0.1999999999999999 0 0.5799999999999998 0.4399999999999998 0 0.5799999999999998 0.4599999999999999 0 0.5799999999999998 0.4799999999999998 0 0.5800000000000001 0.4999999999999999 0 0.5999999999999999 0.1799999999999999 0 0.6199999999999999 0.1799999999999999 0 0.6399999999999999 0.1799999999999999 0 0.6599999999999999 0.1799999999999999 0 0.68 0.18 0 0.7 0.1999999999999999 0 0.7199999999999999 0.1999999999999999 0 0.7399999999999999 0.1999999999999999 0 0.76 0.2 0 0.78 0.22 0 0.78 0.24 0 0.7799999999999998 0.26 0 0.7999999999999997 0.26 0 0.8199999999999997 0.26 0 0.8399999999999996 0.26 0 0.8599999999999997 0.26 0 0.8799999999999997 0.26 0 0.8999999999999997 0.26 0 0.92 0.2600000000000001 0 0.9400000000000001 0.28 0 0.9399999999999997 0.2999999999999999 0 0.9599999999999996 0.2999999999999999 0 0.9799999999999996 0.2999999999999999 0 1 0.3 0 </DataArray>
      </Points>
      <Cells>
        <DataArray type="Int32" Name="connectivity" format="ascii">265 0 1 266 267 266 2 268 0 269 3 1 266 1 4 2 268 2 5 270 269 271 6 3 1 3 7 4 2 4 8 5 270 5 10 9 271 272 11 6 3 6 12 7 4 7 13 8 5 8 14 10 9 10 274 273 272 275 15 11 6 11 16 12 7 12 17 13 8 13 18 14 10 14 19 274 275 276 20 15 11 15 21 16 12 16 22 17 13 17 23 18 14 18 24 19 274 19 26 25 276 27 28 20 15 20 29 21 16 21 30 22 17 22 31 23 18 23 32 24 19 24 33 26 25 26 35 34 27 36 37 28 20 28 38 29 21 29 39 30 22 30 40 31 23 31 41 32 24 32 42 33 26 33 43 35 34 35 45 44 36 46 47 37 28 37 48 38 29 38 49 39 30 39 50 40 31 40 51 41 32 41 52 42 33 42 53 43 35 43 54 45 44 45 277 55 46 278 56 47 37 47 57 48 38 48 58 49 39 49 59 50 40 50 60 51 41 51 61 52 42 52 62 53 43 53 63 54 45 54 279 277 47 56 64 57 48 57 65 58 49 58 66 59 50 59 67 60 51 60 68 61 52 61 69 62 53 62 70 63 54 63 71 279 56 72 73 64 57 64 74 65 58 65 75 66 59 66 76 67 60 67 77 68 61 68 78 69 62 69 79 70 63 70 80 71 72 280 81 73 64 73 82 74 65 74 83 75 66 75 84 76 67 76 85 77 68 77 86 78 69 78 87 79 70 79 88 80 71 80 90 89 280 281 91 81 73 81 92 82 74 82 93 83 75 83 94 84 76 84 95 85 77 85 96 86 78 86 97 87 79 87 98 88 80 88 99 90 89 90 101 100 281 102 103 91 81 91 104 92 82 92 105 93 83 93 106 94 84 94 107 95 85 95 108 96 86 96 109 97 87 97 110 98 88 98 111 99 90 99 112 101 100 101 114 113 91 103 115 104 92 104 116 105 93 105 117 106 94 106 118 107 95 107 119 108 96 108 120 109 97 109 121 110 98 110 122 111 99 111 123 112 101 112 124 114 113 114 126 125 104 115 127 116 105 116 128 117 106 117 129 118 107 118 130 119 108 119 131 120 109 120 132 121 110 121 133 122 111 122 134 123 112 123 135 124 114 124 136 126 125 126 137 282 116 127 138 128 117 128 139 129 118 129 140 130 119 130 141 131 120 131 142 132 121 132 143 133 122 133 144 134 123 134 145 135 124 135 146 136 126 136 147 137 282 137 148 283 128 138 149 139 129 139 150 140 130 140 151 141 131 141 152 142 132 142 153 143 133 143 154 144 134 144 155 145 135 145 156 146 136 146 157 147 137 147 158 148 283 148 159 284 139 149 160 150 140 150 161 151 141 151 162 152 142 152 163 153 143 153 164 154 144 154 165 155 145 155 166 156 146 156 167 157 147 157 168 158 148 158 169 159 284 159 285 170 150 160 171 161 151 161 172 162 152 162 173 163 153 163 174 164 154 164 175 165 155 165 176 166 156 166 177 167 157 167 178 168 158 168 179 169 159 169 180 285 161 171 181 172 162 172 182 173 163 173 183 174 164 174 184 175 165 175 185 176 166 176 186 177 167 177 187 178 168 178 188 179 169 179 189 180 172 181 190 182 173 182 191 183 174 183 192 184 175 184 193 185 176 185 194 186 177 186 195 187 178 187 196 188 179 188 197 189 180 189 199 198 182 190 200 191 183 191 201 192 184 192 202 193 185 193 203 194 186 194 204 195 187 195 205 196 188 196 206 197 189 197 207 199 198 199 208 286 191 200 209 201 192 201 210 202 193 202 211 203 194 203 212 204 195 204 213 205 196 205 214 206 197 206 215 207 199 207 216 208 286 208 218 217 201 209 219 210 202 210 220 211 203 211 221 212 204 212 222 213 205 213 223 214 206 214 224 215 207 215 225 216 208 216 226 218 217 218 228 227 210 219 229 220 211 220 230 221 212 221 231 222 213 222 232 223 214 223 233 224 215 224 234 225 216 225 235 226 218 226 236 228 220 229 237 230 221 230 238 231 222 231 239 232 223 232 240 233 224 233 241 234 225 234 242 235 226 235 243 236 230 237 244 238 231 238 245 239 232 239 246 240 233 240 247 241 234 241 248 242 235 242 249 243 238 244 250 245 239 245 251 246 240 246 252 247 241 247 253 248 242 248 254 249 245 250 255 251 246 251 256 252 247 252 257 253 248 253 258 254 251 255 259 256 252 256 260 257 253 257 261 258 256 259 262 260 257 260 263 261 260 262 264 263 287 288 0 265 288 289 269 0 289 290 271 269 290 291 272 271 291 292 275 272 292 293 276 275 293 294 27 276 294 295 36 27 295 296 46 36 296 297 278 46 298 265 266 267 278 299 72 56 299 300 280 72 300 301 281 280 301 302 102 281 303 267 268 304 304 268 270 305 305 270 9 306 306 9 273 307 273 274 25 308 308 25 34 309 309 34 44 310 310 44 55 311 55 277 313 312 277 279 314 313 279 71 89 314 314 89 100 315 315 100 113 316 316 113 125 317 317 125 282 318 318 282 283 319 319 283 284 320 320 284 170 321 170 285 323 322 285 180 198 323 323 198 286 324 324 286 217 325 325 217 227 326 </DataArray>
        <DataArray type="Int32" Name="offsets" format="ascii">4 8 12 16 20 24 28 32 36 40 44 48 52 56 60 64 68 72 76 80 84 88 92 96 100 104 108 112 116 120 124 128 132 136 140 144 148 152 156 160 164 168 172 176 180 184 188 192 196 200 204 208 212 216 220 224 228 232 236 240 244 248 252 256 260 264 268 272 276 280 284 288 292 296 300 304 308 312 316 320 324 328 332 336 340 344 348 352 356 360 364 368 372 376 380 384 388 392 396 400 404 408 412 416 420 424 428 432 436 440 444 448 452 456 460 464 468 472 476 480 484 488 492 496 500 504 508 512 516 520 524 528 532 536 540 544 548 552 556 560 564 568 572 576 580 584 588 592 596 600 604 608 612 616 620 624 628 632 636 640 644 648 652 656 660 664 668 672 676 680 684 688 692 696 700 704 708 712 716 720 724 728 732 736 740 744 748 752 756 760 764 768 772 776 780 784 788 792 796 800 804 808 812 816 820 824 828 832 836 840 844 848 852 856 860 864 868 872 876 880 884 888 892 896 900 904 908 912 916 920 924 928 932 936 940 944 948 952 956 960 964 968 972 976 980 984 988 992 996 1000 1004 1008 1012 1016 1020 1024 1028 1032 1036 1040 1044 1048 1052 1056 1060 1064 1068 1072 1076 1080 1084 1088 1092 1096 1100 1104 1108 1112 1116 1120 1124 1128 1132 1136 1140 1144 1148 1152 </DataArray>
        <DataArray type="Int8" Name="types" format="ascii">70 70 70 70 70 70 70 70 70 70 70 70 70 70 70 70 70 70 70 70 70 70 70 70 70 70 70 70 70 70 70 70 70 70 70 70 70 70 70 70 70 70 70 70 70 70 70 70 70 70 70 70 70 70 70 70 70 70 70 70 70 70 70 70 70 70 70 70 70 70 70 70 70 70 70 70 70 70 70 70 70 70 70 70 70 70 70 70 70 70 70 70 70 70 70 70 70 70 70 70 70 70 70 70 70 70 70 70 70 70 70 70 70 70 70 70 70 70 70 70 70 70 70 70 70 70 70 70 70 70 70 70 70 70 70 70 70 70 70 70 70 70 70 70 70 70 70 70 70 70 70 70 70 70 70 70 70 70 70 70 70 70 70 70 70 70 70 70 70 70 70 70 70 70 70 70 70 70 70 70 70 70 70 70 70 70 70 70 70 70 70 70 70 70 70 70 70 70 70 70 70 70 70 70 70 70 70 70 70 70 70 70 70 70 70 70 70 70 70 70 70 70 70 70 70 70 70 70 70 70 70 70 70 70 70 70 70 70 70 70 70 70 70 70 70 70 70 70 70 70 70 70 70 70 70 70 70 70 70 70 70 70 70 70 70 70 70 70 70 70 70 70 70 70 70 70 70 70 70 70 70 70 70 70 70 70 70 70 </DataArray>
      </Cells>
      <CellData>
        <DataArray type="UInt8" Name="vtkGhostType" format="ascii" RangeMin="0" RangeMax="1">0 0 0 0 0 0 0 0 0 0 0 0 0 0 0 0 0 0 0 0 0 0 0 0 0 0 0 0 0 0 0 0 0 0 0 0 0 0 0 0 0 0 0 0 0 0 0 0 0 0 0 0 0 0 0 0 0 0 0 0 0 0 0 0 0 0 0 0 0 0 0 0 0 0 0 0 0 0 0 0 0 0 0 0 0 0 0 0 0 0 0 0 0 0 0 0 0 0 0 0 0 0 0 0 0 0 0 0 0 0 0 0 0 0 0 0 0 0 0 0 0 0 0 0 0 0 0 0 0 0 0 0 0 0 0 0 0 0 0 0 0 0 0 0 0 0 0 0 0 0 0 0 0 0 0 0 0 0 0 0 0 0 0 0 0 0 0 0 0 0 0 0 0 0 0 0 0 0 0 0 0 0 0 0 0 0 0 0 0 0 0 0 0 0 0 0 0 0 0 0 0 0 0 0 0 0 0 0 0 0 0 0 0 0 0 0 0 0 0 0 0 0 0 0 0 0 0 0 0 0 0 0 0 0 0 0 0 0 0 0 0 0 0 0 0 0 0 0 0 0 1 1 1 1 1 1 1 1 1 1 1 1 1 1 1 1 1 1 1 1 1 1 1 1 1 1 1 1 1 1 1 1 1 1 1 1 1 1 </DataArray>
        <DataArray type="Int64" IdType="1" Name="vtkOriginalCellIds" format="ascii" RangeMin="0" RangeMax="997">0 1 2 3 4 5 6 7 8 9 10 11 12 13 14 15 16 17 18 19 20 21 22 23 24 25 26 27 28 29 30 31 32 33 34 35 36 37 38 39 40 41 42 43 44 45 46 47 48 49 50 51 52 53 54 55 56 57 58 59 60 61 62 63 64 65 66 67 68 69 70 71 72 73 74 75 76 77 78 79 80 81 82 83 84 85 86 87 88 89 90 91 92 93 94 95 96 97 98 99 100 101 102 103 104 105 106 107 108 109 110 111 112 113 114 115 116 117 118 119 120 121 122 123 124 125 126 127 128 129 130 131 132 133 134 135 136 137 138 139 140 141 142 143 144 145 146 147 148 149 150 151 152 153 154 155 156 157 158 159 160 161 162 163 164 165 166 167 168 169 170 171 172 173 174 175 176 177 178 179 180 181 182 183 184 185 186 187 188 189 190 191 192 193 194 195 196 197 198 199 200 201 202 203 204 205 206 207 208 209 210 211 212 213 214 215 216 217 218 219 220 221 222 223 224 225 226 227 228 229 230 231 232 233 234 235 236 237 238 239 240 241 242 243 244 245 246 247 248 249 524 518 513 509 506 504 987 982 975 980 539 991 994 996 997 455 445 435 425 404 393 382 371 348 336 324 313 303 294 286 279 273 268 260 256 253 251 250 </DataArray>
      </CellData>
      <PointData Scalars="phi">
        <DataArray type="Int64" IdType="1" Name="vtkOriginalPointIds" format="ascii" RangeMin="0" RangeMax="1053">0 1 2 3 4 5 6 7 8 9 10 11 12 13 14 15 16 17 18 19 20 21 22 23 24 25 26 27 28 29 30 31 32 33 34 35 36 37 38 39 40 41 42 43 44 45 46 47 48 49 50 51 52 53 54 55 56 57 58 59 60 61 62 63 64 65 66 67 68 69 70 71 72 73 74 75 76 77 78 79 80 81 82 83 84 85 86 87 88 89 90 91 92 93 94 95 96 97 98 99 100 101 102 103 104 105 106 107 108 109 110 111 112 113 114 115 116 117 118 119 120 121 122 123 124 125 126 127 128 129 130 131 132 133 134 135 136 137 138 139 140 141 142 143 144 145 146 147 148 149 150 151 152 153 154 155 156 157 158 159 160 161 162 163 164 165 166 167 168 169 170 171 172 173 174 175 176 177 178 179 180 181 182 183 184 185 186 187 188 189 190 191 192 193 194 195 196 197 198 199 200 201 202 203 204 205 206 207 208 209 210 211 212 213 214 215 216 217 218 219 220 221 222 223 224 225 226 227 228 229 230 231 232 233 234 235 236 237 238 239 240 241 242 243 244 245 246 247 248 249 250 251 252 253 254 255 256 257 258 259 260 261 262 263 264 563 580 579 481 549 470 544 539 437 438 536 1045 368 1040 355 1051 1053 305 297 290 275 268 562 555 548 543 538 534 535 1035 1027 1028 1033 571 1044 1048 1050 1052 491 480 469 459 449 426 415 404 393 369 356 343 332 322 313 304 296 289 284 276 271 267 265 266 </DataArray>
        <DataArray type="UInt8" Name="vtkGhostType" format="ascii" RangeMin="0" RangeMax="1">0 0 0 0 0 0 0 0 0 0 0 0 0 0 0 0 0 0 0 0 0 0 0 0 0 0 0 0 0 0 0 0 0 0 0 0 0 0 0 0 0 0 0 0 0 0 0 0 0 0 0 0 0 0 0 0 0 0 0 0 0 0 0 0 0 0 0 0 0 0 0 0 0 0 0 0 0 0 0 0 0 0 0 0 0 0 0 0 0 0 0 0 0 0 0 0 0 0 0 0 0 0 0 0 0 0 0 0 0 0 0 0 0 0 0 0 0 0 0 0 0 0 0 0 0 0 0 0 0 0 0 0 0 0 0 0 0 0 0 0 0 0 0 0 0 0 0 0 0 0 0 0 0 0 0 0 0 0 0 0 0 0 0 0 0 0 0 0 0 0 0 0 0 0 0 0 0 0 0 0 0 0 0 0 0 0 0 0 0 0 0 0 0 0 0 0 0 0 0 0 0 0 0 0 0 0 0 0 0 0 0 0 0 0 0 0 0 0 0 0 0 0 0 0 0 0 0 0 0 0 0 0 0 0 0 0 0 0 0 0 0 0 0 0 0 0 0 0 0 0 0 0 0 0 0 0 0 0 0 0 0 0 0 0 0 1 1 1 1 1 1 1 1 1 1 1 1 1 1 1 1 1 1 1 1 1 1 1 1 1 1 1 1 1 1 1 1 1 1 1 1 1 1 1 1 1 1 1 1 1 1 1 1 1 1 1 1 1 1 1 1 1 1 1 1 1 1 </DataArray>
        <DataArray type="Float64" Name="phi" format="ascii">0.8109695884595878 0.8056494266463791 0.803528036575346 0.8024159784768788 0.800433571418745 0.7981265832067471 0.7994135197852735 0.7975134939980095 0.7953614985563512 0.7954751929755102 0.7929304964911427 0.7966527982255212 0.7947867356678596 0.792735197654528 0.7904668380083917 0.7941415756090329 0.7922676151482164 0.7902691036242429 0.7881122683323486 0.7857774925568904 0.7918854672958299 0.7899669982710809 0.7879799859855821 0.7858894171363671 0.7836714168332853 0.7832623729731772 0.781316093129329 0.7937782475012899 0.7898885375712204 0.7878931542833354 0.7858809884538861 0.7838165011004437 0.7816729799169502 0.779435076684234 0.7788292415872404 0.7771006378819575 0.7919087636614004 0.7881537244007721 0.786052387759277 0.7839824246999931 0.7819081674134768 0.7798010137002332 0.7776416371659303 0.775421774502466 0.7746813374999363 0.7731451957499305 0.7903268966407093 0.7866831438658469 0.7844495052995352 0.7822923893754182 0.7801761807146936 0.7780709949868616 0.7759545783841754 0.7738139658200495 0.7716465937562437 0.770827555997101 0.7854783088438385 0.7830881604097081 0.7808172248611644 0.7786299729012067 0.7764956019449888 0.7743896570081772 0.7722955235635992 0.7702055638980057 0.7819711080265958 0.7795618762869294 0.7772770778904424 0.7750851797121102 0.7729600069936152 0.7708820623977034 0.7688396171829293 0.7668293889852394 0.7845402857510072 0.7811003913489384 0.7785301601102722 0.7761234720663434 0.7738481222192056 0.7716765126094589 0.7695868035617723 0.7675639229869263 0.765600289012428 0.7804774771645676 0.7777249654656466 0.7751738382187014 0.7727911803358324 0.7705481265934799 0.7684208575114146 0.7663915095783961 0.7644488897788092 0.763696108540425 0.7625888796316337 0.78010335110049 0.7771484026045821 0.7744317675094839 0.7719197068301338 0.7695821352549861 0.7673934758353698 0.7653334650805074 0.7633878268706585 0.7615487226302741 0.7608144369194746 0.7598148939132716 0.7833331587306178 0.7799785806531252 0.7768019088766701 0.7738999108976323 0.7712378477352152 0.7687843748149791 0.7665122686193093 0.7643991262893177 0.7624279795065912 0.7605877501051937 0.7588734748838503 0.7581914441593758 0.7572862439443683 0.7766863196250985 0.7735800887095591 0.7707486882632629 0.7681594040739487 0.7657833868801575 0.763596248240837 0.7615786028252685 0.7597165017105098 0.7580016961878687 0.7564316792100599 0.755832829130526 0.7550094721818403 0.7734733646757589 0.7704543597981243 0.7677106383600041 0.7652116715068293 0.7629311510473978 0.7608474527534761 0.7589440281152826 0.7572096753733503 0.7556386422841933 0.754230525194118 0.7529899500423728 0.770356112906001 0.7674404490804293 0.7648007709059327 0.7624088427724522 0.7602408982207478 0.7582779761117259 0.7565061752352268 0.7549167859388227 0.7535062635822494 0.7522760226962485 0.7512320501796232 0.7673502323343095 0.7645532296686816 0.7620331183879373 0.759764017763102 0.7577246689478986 0.7558986549139785 0.7542745355563143 0.752845864687104 0.7516110645467653 0.7505731476622715 0.7497392926481009 0.7644705503120653 0.7618066354737653 0.7594206790359876 0.7572891779883842 0.7553933220764316 0.7537191120536758 0.7522573951035005 0.7510037918634788 0.749958499560695 0.7491259689290611 0.7491202962889399 0.7617309675034873 0.7592136006476319 0.7569753832706073 0.754995181938948 0.7532565600357122 0.7517478108931254 0.7504619138527452 0.7493963945038111 0.7485530804924971 0.7479377557906488 0.7591443962026941 0.7567860215181088 0.7547080802145177 0.752891777003121 0.7513229658116738 0.7499921150036217 0.748894203670364 0.7480285359601346 0.7473984699057821 0.7567227208127769 0.7545347380417039 0.7526285405580105 0.7509876236927372 0.7496000472071886 0.7484583493990797 0.7475594016803709 0.7469041951835225 0.7470110668118194 0.7464975594177715 0.754476777653899 0.7524695314361461 0.7507454720268391 0.7492903282359613 0.7480942845971167 0.7471518600263155 0.746461736743123 0.7460265345937444 0.7458525331964199 0.7524163508844816 0.7505991345357337 0.7490665438581591 0.7478064800173229 0.7468111790210914 0.7460770690159692 0.7456045874367812 0.7453979558992432 0.7459493503917239 0.7454649168395554 0.7505501811763222 0.7489312514885499 0.7475984169823303 0.7465416908253599 0.745755298059409 0.7452375238233322 0.7449905304678321 0.7450201435745686 0.7458164405722332 0.7453356119679204 0.7488859838345667 0.7474725836324162 0.7463467769817053 0.7455006333591644 0.7449303174794785 0.7446359388961649 0.7446213788240811 0.744894095901435 0.7474304732470549 0.7462288586971323 0.745316367307995 0.7446870769150953 0.7443390571097296 0.7442742289068263 0.7444982092524582 0.7461893908376758 0.7452048608427483 0.7445110206551901 0.7441039186057357 0.7439835097938291 0.7441535328952396 0.745167534044463 0.7444044594252371 0.7439336867840715 0.7437532088470905 0.7438648626073945 0.7443687842133907 0.7438306347594675 0.7435864554653917 0.7436361701873575 0.7437961316703207 0.7434854995110693 0.7434705735478068 0.7434516965918232 0.7433703146872159 0.7433367446336174 0.8147955554901012 0.8090989403579021 0.8127437229447116 0.8067717808403885 0.807407091971769 0.8010030662916429 0.8041173631022022 0.8011064417737772 0.7902165064463004 0.7879683737026176 0.7983781834687748 0.7959349797787207 0.7694605941962399 0.7890327663377628 0.7681216665790574 0.7838698057678165 0.7834673417993848 0.753743154812623 0.7519260466333582 0.7503843565480788 0.7485144662627075 0.7463478207308682 0.8205664692283663 0.8163491173591118 0.8124473563770505 0.8088633385683192 0.8055973847355582 0.8026487624682977 0.8000161755234535 0.7976980744225914 0.7956928547431238 0.7939989840073677 0.7926150827638445 0.818870823680516 0.7880263551688391 0.7873075844481158 0.7868763658316016 0.7867326341811098 0.8165546828909102 0.8101314290565091 0.8039559757225075 0.7980663029135481 0.7924888726422878 0.7852476219468367 0.7805829938982407 0.776232336901252 0.7722018232798669 0.7672741233005913 0.7660550450588275 0.7648566498304028 0.7618591598241414 0.759135153656963 0.7566892540557917 0.7545250200220273 0.7526451683156145 0.7510517518877632 0.7497463014098817 0.7481355433289895 0.7475597269787775 0.7468766752337546 0.7464664140521742 0.7463295894203602 </DataArray>
      </PointData>
    </Piece>
  </UnstructuredGrid>
</VTKFile>
